 TITLE = "Post Processing Tecplot"
 VARIABLES = "X", "Y", "U", "V", "P",
 ZONE T="BIG ZONE", I=         130 , J=          66 , DATAPACKING=POINT
           1           1  0.8305866      0.2641146       252.0145    
           2           1   1.169413     -0.2641146       252.0145    
           3           1   1.521065     -0.2497288       247.0495    
           4           1   1.312043     -0.2423567       247.6196    
           5           1   1.446700     -0.2434219       244.4020    
           6           1   1.383597     -0.2402926       243.2184    
           7           1   1.429118     -0.2383271       240.6278    
           8           1   1.414754     -0.2355332       238.5462    
           9           1   1.432754     -0.2331776       235.8985    
          10           1   1.434177     -0.2308345       233.2818    
          11           1   1.444201     -0.2288135       230.3686    
          12           1   1.450700     -0.2270006       227.3318    
          13           1   1.459117     -0.2254945       224.0882    
          14           1   1.467212     -0.2242804       220.6768    
          15           1   1.475824     -0.2234003       217.0851    
          16           1   1.484691     -0.2228706       213.3228    
          17           1   1.493938     -0.2227152       209.3951    
          18           1   1.503605     -0.2229474       205.3123    
          19           1   1.513778     -0.2235699       201.0874    
          20           1   1.524556     -0.2245728       196.7369    
          21           1   1.536046     -0.2259297       192.2804    
          22           1   1.548355     -0.2276006       187.7398    
          23           1   1.561584     -0.2295285       183.1384    
          24           1   1.575812     -0.2316445       178.5001    
          25           1   1.591097     -0.2338700       173.8485    
          26           1   1.607464     -0.2361188       169.2054    
          27           1   1.624907     -0.2383026       164.5902    
          28           1   1.643380     -0.2403332       160.0196    
          29           1   1.662807     -0.2421251       155.5064    
          30           1   1.683077     -0.2435991       151.0599    
          31           1   1.704051     -0.2446833       146.6855    
          32           1   1.725564     -0.2453162       142.3847    
          33           1   1.747436     -0.2454451       138.1556    
          34           1   1.769473     -0.2450284       133.9934    
          35           1   1.791478     -0.2440342       129.8904    
          36           1   1.813253     -0.2424405       125.8369    
          37           1   1.834606     -0.2402348       121.8216    
          38           1   1.855359     -0.2374116       117.8318    
          39           1   1.875352     -0.2339736       113.8546    
          40           1   1.894441     -0.2299293       109.8764    
          41           1   1.912511     -0.2252936       105.8841    
          42           1   1.929464     -0.2200844       101.8650    
          43           1   1.945232     -0.2143251       97.80691    
          44           1   1.959770     -0.2080406       93.69886    
          45           1   1.973058     -0.2012605       89.53092    
          46           1   1.985093     -0.1940142       85.29444    
          47           1   1.995892     -0.1863332       80.98211    
          48           1   2.005488     -0.1782502       76.58803    
          49           1   2.013926     -0.1697973       72.10771    
          50           1   2.021258     -0.1610069       67.53815    
          51           1   2.027543     -0.1519114       62.87772    
          52           1   2.032841     -0.1425416       58.12620    
          53           1   2.037215     -0.1329268       53.28469    
          54           1   2.040725     -0.1230952       48.35561    
          55           1   2.043428     -0.1130732       43.34262    
          56           1   2.045375     -0.1028852       38.25048    
          57           1   2.046613     -9.2553079E-02   33.08506    
          58           1   2.047182     -8.2097575E-02   27.85321    
          59           1   2.047119     -7.1536832E-02   22.56269    
          60           1   2.046451     -6.0887124E-02   17.22211    
          61           1   2.045201     -5.0162967E-02   11.84077    
          62           1   2.043385     -3.9377116E-02   6.428633    
          63           1   2.041014     -2.8541246E-02  0.9962113    
          64           1   2.038096     -1.7665248E-02  -4.445575    
          65           1   2.034632     -6.7583108E-03  -9.885457    
          66           1   2.030621      4.1710157E-03  -15.31189    
          67           1   2.026056      1.5114935E-02  -20.71320    
          68           1   2.020930      2.6065836E-02  -26.07768    
          69           1   2.015232      3.7015565E-02  -31.39369    
          70           1   2.008949      4.7956713E-02  -36.64974    
          71           1   2.002067      5.8880284E-02  -41.83467    
          72           1   1.994570      6.9776885E-02  -46.93771    
          73           1   1.986441      8.0635957E-02  -51.94857    
          74           1   1.977664      9.1445267E-02  -56.85764    
          75           1   1.968223      0.1021915      -61.65604    
          76           1   1.958102      0.1128593      -66.33578    
          77           1   1.947285      0.1234311      -70.88985    
          78           1   1.935759      0.1338871      -75.31243    
          79           1   1.923512      0.1442049      -79.59892    
          80           1   1.910537      0.1543599      -83.74611    
          81           1   1.896827      0.1643251      -87.75230    
          82           1   1.882384      0.1740693      -91.61745    
          83           1   1.867206      0.1835603      -95.34317    
          84           1   1.851306      0.1927620      -98.93300    
          85           1   1.834697      0.2016367      -102.3923    
          86           1   1.817401      0.2101432      -105.7285    
          87           1   1.799448      0.2182396      -108.9510    
          88           1   1.780876      0.2258814      -112.0711    
          89           1   1.761731      0.2330234      -115.1023    
          90           1   1.742069      0.2396201      -118.0598    
          91           1   1.721959      0.2456261      -120.9607    
          92           1   1.701478      0.2509979      -123.8237    
          93           1   1.680712      0.2556948      -126.6688    
          94           1   1.659760      0.2596794      -129.5171    
          95           1   1.638729      0.2629192      -132.3903    
          96           1   1.617734      0.2653893      -135.3102    
          97           1   1.596900      0.2670720      -138.2986    
          98           1   1.576352      0.2679600      -141.3762    
          99           1   1.556221      0.2680559      -144.5622    
         100           1   1.536632      0.2673757      -147.8739    
         101           1   1.517712      0.2659492      -151.3257    
         102           1   1.499573      0.2638177      -154.9285    
         103           1   1.482316      0.2610392      -158.6894    
         104           1   1.466023      0.2576828      -162.6113    
         105           1   1.450757      0.2538315      -166.6923    
         106           1   1.436551      0.2495784      -170.9258    
         107           1   1.423412      0.2450238      -175.3006    
         108           1   1.411318      0.2402736      -179.8013    
         109           1   1.400213      0.2354328      -184.4087    
         110           1   1.390018      0.2306057      -189.1008    
         111           1   1.380627      0.2258865      -193.8538    
         112           1   1.371917      0.2213604      -198.6429    
         113           1   1.363750      0.2170974      -203.4436    
         114           1   1.355991      0.2131520      -208.2327    
         115           1   1.348482      0.2095598      -212.9896    
         116           1   1.341178      0.2063435      -217.6944    
         117           1   1.333687      0.2035026      -222.3376    
         118           1   1.326765      0.2010481      -226.8906    
         119           1   1.317962      0.1989202      -231.3864    
         120           1   1.313199      0.1971941      -235.7190    
         121           1   1.298574      0.1956504      -240.0910    
         122           1   1.303268      0.1946221      -244.1003    
         123           1   1.270278      0.1933920      -248.4374    
         124           1   1.302023      0.1931963      -251.9772    
         125           1   1.225306      0.1914201      -256.4195    
         126           1   1.316310      0.1927280      -259.2629    
         127           1   1.149273      0.1880332      -264.0916    
         128           1   1.357086      0.1893965      -265.8299    
         129           1   1.010183      0.1973014      -271.2081    
         130           1   1.010183      0.1973014      -271.2081    
           1           2  0.8305866     -0.2641146       252.0145    
           2           2   1.184453      0.2788872       252.0145    
           3           2   1.539986      0.2661871       247.0495    
           4           2   1.323788      0.2585539       247.6196    
           5           2   1.467238      0.2592871       244.4020    
           6           2   1.401637      0.2561240       243.2184    
           7           2   1.452148      0.2542928       240.6278    
           8           2   1.438634      0.2515327       238.5462    
           9           2   1.459844      0.2492508       235.8985    
          10           2   1.463118      0.2469050       233.2818    
          11           2   1.475779      0.2448427       230.3686    
          12           2   1.484433      0.2429148       227.3318    
          13           2   1.495236      0.2412203       224.0882    
          14           2   1.505559      0.2397290       220.6768    
          15           2   1.516402      0.2384782       217.0851    
          16           2   1.527398      0.2374790       213.3228    
          17           2   1.538662      0.2367579       209.3951    
          18           2   1.550182      0.2363365       205.3123    
          19           2   1.562004      0.2362332       201.0874    
          20           2   1.574182      0.2364589       196.7369    
          21           2   1.586788      0.2370142       192.2804    
          22           2   1.599906      0.2378891       187.7398    
          23           2   1.613620      0.2390576       183.1384    
          24           2   1.628015      0.2404816       178.5001    
          25           2   1.643160      0.2421102       173.8485    
          26           2   1.659112      0.2438811       169.2054    
          27           2   1.675898      0.2457239       164.5902    
          28           2   1.693523      0.2475624       160.0196    
          29           2   1.711960      0.2493162       155.5064    
          30           2   1.731151      0.2509058       151.0599    
          31           2   1.751010      0.2522527       146.6855    
          32           2   1.771424      0.2532833       142.3847    
          33           2   1.792260      0.2539293       138.1556    
          34           2   1.813363      0.2541299       133.9934    
          35           2   1.834571      0.2538317       129.8904    
          36           2   1.855713      0.2529897       125.8369    
          37           2   1.876618      0.2515681       121.8216    
          38           2   1.897121      0.2495381       117.8318    
          39           2   1.917069      0.2468800       113.8546    
          40           2   1.936320      0.2435811       109.8764    
          41           2   1.954753      0.2396370       105.8841    
          42           2   1.972264      0.2350481       101.8650    
          43           2   1.988772      0.2298222       97.80691    
          44           2   2.004218      0.2239715       93.69886    
          45           2   2.018563      0.2175144       89.53092    
          46           2   2.031787      0.2104720       85.29444    
          47           2   2.043887      0.2028694       80.98211    
          48           2   2.054876      0.1947347       76.58803    
          49           2   2.064776      0.1860978       72.10771    
          50           2   2.073621      0.1769905       67.53815    
          51           2   2.081449      0.1674461       62.87772    
          52           2   2.088300      0.1574977       58.12620    
          53           2   2.094220      0.1471786       53.28469    
          54           2   2.099248      0.1365220       48.35561    
          55           2   2.103427      0.1255600       43.34262    
          56           2   2.106790      0.1143239       38.25048    
          57           2   2.109371      0.1028435       33.08506    
          58           2   2.111197      9.1147408E-02   27.85321    
          59           2   2.112290      7.9262801E-02   22.56269    
          60           2   2.112669      6.7215376E-02   17.22211    
          61           2   2.112345      5.5029266E-02   11.84077    
          62           2   2.111327      4.2727340E-02   6.428633    
          63           2   2.109619      3.0331584E-02  0.9962113    
          64           2   2.107221      1.7862428E-02  -4.445575    
          65           2   2.104131      5.3397110E-03  -9.885457    
          66           2   2.100344     -7.2170114E-03  -15.31189    
          67           2   2.095853     -1.9788997E-02  -20.71320    
          68           2   2.090647     -3.2357700E-02  -26.07768    
          69           2   2.084718     -4.4903886E-02  -31.39369    
          70           2   2.078055     -5.7408996E-02  -36.64974    
          71           2   2.070646     -6.9853149E-02  -41.83467    
          72           2   2.062481     -8.2216017E-02  -46.93771    
          73           2   2.053549     -9.4476290E-02  -51.94857    
          74           2   2.043842     -0.1066111      -56.85764    
          75           2   2.033353     -0.1185968      -61.65604    
          76           2   2.022075     -0.1304083      -66.33578    
          77           2   2.010008     -0.1420180      -70.88985    
          78           2   1.997150     -0.1533974      -75.31243    
          79           2   1.983507     -0.1645155      -79.59892    
          80           2   1.969087     -0.1753403      -83.74611    
          81           2   1.953902     -0.1858376      -87.75230    
          82           2   1.937973     -0.1959709      -91.61745    
          83           2   1.921321     -0.2057032      -95.34317    
          84           2   1.903981     -0.2149957      -98.93300    
          85           2   1.885989     -0.2238087      -102.3923    
          86           2   1.867391     -0.2321020      -105.7285    
          87           2   1.848242     -0.2398359      -108.9510    
          88           2   1.828602     -0.2469705      -112.0711    
          89           2   1.808544     -0.2534676      -115.1023    
          90           2   1.788147     -0.2592916      -118.0598    
          91           2   1.767498     -0.2644097      -120.9607    
          92           2   1.746693     -0.2687935      -123.8237    
          93           2   1.725836     -0.2724204      -126.6688    
          94           2   1.705036     -0.2752742      -129.5171    
          95           2   1.684407     -0.2773457      -132.3903    
          96           2   1.664063     -0.2786356      -135.3102    
          97           2   1.644125     -0.2791543      -138.2986    
          98           2   1.624703     -0.2789237      -141.3762    
          99           2   1.605909     -0.2779756      -144.5622    
         100           2   1.587839     -0.2763554      -147.8739    
         101           2   1.570584     -0.2741202      -151.3257    
         102           2   1.554214     -0.2713373      -154.9285    
         103           2   1.538779     -0.2680857      -158.6894    
         104           2   1.524309     -0.2644519      -162.6113    
         105           2   1.510810     -0.2605293      -166.6923    
         106           2   1.498261     -0.2564158      -170.9258    
         107           2   1.486613     -0.2522084      -175.3006    
         108           2   1.475797     -0.2480026      -179.8013    
         109           2   1.465720     -0.2438864      -184.4087    
         110           2   1.456274     -0.2399403      -189.1008    
         111           2   1.447337     -0.2362305      -193.8538    
         112           2   1.438783     -0.2328107      -198.6429    
         113           2   1.430485     -0.2297183      -203.4436    
         114           2   1.422334     -0.2269765      -208.2327    
         115           2   1.414188     -0.2245915      -212.9896    
         116           2   1.406077     -0.2225632      -217.6944    
         117           2   1.397544     -0.2208698      -222.3376    
         118           2   1.389632     -0.2195125      -226.8906    
         119           2   1.379354     -0.2184179      -231.3864    
         120           2   1.373805     -0.2176630      -235.7190    
         121           2   1.357005     -0.2170213      -240.0910    
         122           2   1.361586     -0.2168282      -244.1003    
         123           2   1.325371     -0.2163643      -248.4374    
         124           2   1.358084     -0.2168752      -251.9772    
         125           2   1.276479     -0.2157070      -256.4195    
         126           2   1.370568     -0.2175632      -259.2629    
         127           2   1.195651     -0.2133330      -264.0916    
         128           2   1.408165     -0.2147594      -265.8299    
         129           2   1.055243     -0.2234506      -271.2081    
         130           2   1.010183     -0.1973014      -271.2081    
           1           3  0.8250676     -0.4578418       248.5696    
           2           3   1.191995      0.4649803       248.5696    
           3           3   1.542441      0.4577946       244.1953    
           4           3   1.317572      0.4446381       244.8003    
           5           3   1.461589      0.4426259       241.6281    
           6           3   1.392186      0.4360745       240.4625    
           7           3   1.444241      0.4323608       237.8551    
           8           3   1.430296      0.4272863       235.7751    
           9           3   1.452743      0.4231415       233.1203    
          10           3   1.456740      0.4188953       230.5086    
          11           3   1.470563      0.4150352       227.6055    
          12           3   1.480298      0.4113450       224.5899    
          13           3   1.492324      0.4079324       221.3781    
          14           3   1.503906      0.4047672       218.0121    
          15           3   1.516093      0.4018956       214.4795    
          16           3   1.528500      0.3993449       210.7912    
          17           3   1.541248      0.3971633       206.9516    
          18           3   1.554312      0.3953973       202.9699    
          19           3   1.567718      0.3940928       198.8566    
          20           3   1.581500      0.3932891       194.6249    
          21           3   1.595695      0.3930119       190.2903    
          22           3   1.610353      0.3932712       185.8701    
          23           3   1.625525      0.3940543       181.3830    
          24           3   1.641254      0.3953279       176.8481    
          25           3   1.657583      0.3970364       172.2848    
          26           3   1.674535      0.3991038       167.7114    
          27           3   1.692117      0.4014365       163.1448    
          28           3   1.710317      0.4039265       158.6000    
          29           3   1.729098      0.4064551       154.0891    
          30           3   1.748400      0.4088986       149.6217    
          31           3   1.768137      0.4111295       145.2044    
          32           3   1.788206      0.4130238       140.8408    
          33           3   1.808482      0.4144599       136.5315    
          34           3   1.828829      0.4153243       132.2747    
          35           3   1.849099      0.4155123       128.0663    
          36           3   1.869141      0.4149284       123.9002    
          37           3   1.888805      0.4134899       119.7685    
          38           3   1.907945      0.4111241       115.6626    
          39           3   1.926428      0.4077709       111.5725    
          40           3   1.944134      0.4033836       107.4882    
          41           3   1.960958      0.3979257       103.3994    
          42           3   1.976818      0.3913743       99.29588    
          43           3   1.991650      0.3837173       95.16797    
          44           3   2.005410      0.3749545       91.00645    
          45           3   2.018073      0.3650960       86.80296    
          46           3   2.029633      0.3541628       82.55001    
          47           3   2.040098      0.3421835       78.24114    
          48           3   2.049492      0.3291972       73.87100    
          49           3   2.057843      0.3152477       69.43531    
          50           3   2.065193      0.3003868       64.93100    
          51           3   2.071584      0.2846701       60.35618    
          52           3   2.077061      0.2681569       55.71011    
          53           3   2.081668      0.2509090       50.99320    
          54           3   2.085449      0.2329890       46.20696    
          55           3   2.088444      0.2144612       41.35404    
          56           3   2.090687      0.1953876       36.43808    
          57           3   2.092209      0.1758295       31.46365    
          58           3   2.093034      0.1558483       26.43628    
          59           3   2.093184      0.1355012       21.36229    
          60           3   2.092671      0.1148443       16.24877    
          61           3   2.091507      9.3931489E-02   11.10349    
          62           3   2.089697      7.2813876E-02   5.934800    
          63           3   2.087243      5.1541314E-02  0.7515882    
          64           3   2.084143      3.0160964E-02  -4.436884    
          65           3   2.080393      8.7187625E-03  -9.621023    
          66           3   2.075985     -1.2740422E-02  -14.79101    
          67           3   2.070912     -3.4173422E-02  -19.93687    
          68           3   2.065164     -5.5536930E-02  -25.04861    
          69           3   2.058731     -7.6788589E-02  -30.11631    
          70           3   2.051603     -9.7885303E-02  -35.13021    
          71           3   2.043769     -0.1187843      -40.08083    
          72           3   2.035220     -0.1394416      -44.95910    
          73           3   2.025949     -0.1598125      -49.75637    
          74           3   2.015949     -0.1798505      -54.46466    
          75           3   2.005216     -0.1995084      -59.07668    
          76           3   1.993747     -0.2187367      -63.58593    
          77           3   1.981547     -0.2374848      -67.98687    
          78           3   1.968617     -0.2556995      -72.27501    
          79           3   1.954969     -0.2733264      -76.44701    
          80           3   1.940616     -0.2903094      -80.50076    
          81           3   1.925576     -0.3065913      -84.43556    
          82           3   1.909872     -0.3221124      -88.25214    
          83           3   1.893536     -0.3368145      -91.95273    
          84           3   1.876603     -0.3506373      -95.54116    
          85           3   1.859115     -0.3635227      -99.02297    
          86           3   1.841124     -0.3754137      -102.4053    
          87           3   1.822686     -0.3862543      -105.6970    
          88           3   1.803864     -0.3959954      -108.9087    
          89           3   1.784732     -0.4045893      -112.0524    
          90           3   1.765366     -0.4119974      -115.1417    
          91           3   1.745854     -0.4181870      -118.1915    
          92           3   1.726285     -0.4231367      -121.2181    
          93           3   1.706757     -0.4268348      -124.2385    
          94           3   1.687368     -0.4292840      -127.2703    
          95           3   1.668221     -0.4304999      -130.3315    
          96           3   1.649417     -0.4305147      -133.4398    
          97           3   1.631056     -0.4293779      -136.6127    
          98           3   1.613235     -0.4271553      -139.8661    
          99           3   1.596041     -0.4239318      -143.2150    
         100           3   1.579553     -0.4198087      -146.6718    
         101           3   1.563837     -0.4149046      -150.2468    
         102           3   1.548943     -0.4093508      -153.9472    
         103           3   1.534905     -0.4032933      -157.7768    
         104           3   1.521732     -0.3968833      -161.7360    
         105           3   1.509421     -0.3902780      -165.8214    
         106           3   1.497940     -0.3836333      -170.0260    
         107           3   1.487243     -0.3770987      -174.3391    
         108           3   1.477261     -0.3708131      -178.7473    
         109           3   1.467913     -0.3648989      -183.2342    
         110           3   1.459103     -0.3594581      -187.7817    
         111           3   1.450731     -0.3545692      -192.3703    
         112           3   1.442692     -0.3502843      -196.9803    
         113           3   1.434881     -0.3466330      -201.5925    
         114           3   1.427214     -0.3436177      -206.1886    
         115           3   1.419567     -0.3412221      -210.7525    
         116           3   1.411990     -0.3394147      -215.2680    
         117           3   1.404026     -0.3381426      -219.7288    
         118           3   1.396750     -0.3373764      -224.1077    
         119           3   1.387133     -0.3370073      -228.4400    
         120           3   1.382329     -0.3370908      -232.6194    
         121           3   1.366303     -0.3373366      -236.8491    
         122           3   1.371737     -0.3381427      -240.7274    
         123           3   1.336372     -0.3384816      -244.9440    
         124           3   1.370461     -0.3401800      -248.3743    
         125           3   1.289218     -0.3391728      -252.7203    
         126           3   1.387396     -0.3424628      -255.4819    
         127           3   1.210720     -0.3369344      -260.2381    
         128           3   1.437672     -0.3384854      -261.9528    
         129           3   1.082486     -0.3537693      -267.3285    
         130           3   1.040996     -0.3213376      -267.3285    
           1           4  0.8339671     -0.3541964       249.4154    
           2           4   1.182736      0.3510902       249.4154    
           3           4   1.529145      0.3385204       245.1588    
           4           4   1.310450      0.3264510       245.6818    
           5           4   1.455206      0.3230291       242.5082    
           6           4   1.386567      0.3169970       241.2973    
           7           4   1.439703      0.3136964       238.6453    
           8           4   1.425815      0.3092197       236.5264    
           9           4   1.448731      0.3055787       233.8297    
          10           4   1.452850      0.3018439       231.1850    
          11           4   1.466875      0.2983511       228.2536    
          12           4   1.476754      0.2949941       225.2186    
          13           4   1.488934      0.2917925       221.9967    
          14           4   1.500679      0.2887534       218.6316    
          15           4   1.513055      0.2858869       215.1124    
          16           4   1.525689      0.2832172       211.4511    
          17           4   1.538710      0.2807735       207.6532    
          18           4   1.552099      0.2785900       203.7279    
          19           4   1.565890      0.2767067       199.6856    
          20           4   1.580108      0.2751604       195.5384    
          21           4   1.594787      0.2739873       191.2999    
          22           4   1.609964      0.2732143       186.9845    
          23           4   1.625673      0.2728580       182.6079    
          24           4   1.641942      0.2729235       178.1857    
          25           4   1.658792      0.2734016       173.7334    
          26           4   1.676227      0.2742681       169.2656    
          27           4   1.694238      0.2754861       164.7957    
          28           4   1.712795      0.2770034       160.3355    
          29           4   1.731847      0.2787590       155.8947    
          30           4   1.751323      0.2806803       151.4809    
          31           4   1.771132      0.2826877       147.0991    
          32           4   1.791162      0.2846955       142.7524    
          33           4   1.811289      0.2866149       138.4415    
          34           4   1.831373      0.2883532       134.1649    
          35           4   1.851274      0.2898187       129.9195    
          36           4   1.870841      0.2909202       125.7006    