 TITLE = "Post Processing Tecplot"
 VARIABLES = "X", "Y", "U", "V", "P",
 ZONE T="BIG ZONE", I=         130 , J=          66 , DATAPACKING=POINT
           1           1  0.8155466      0.2788872       252.0145    
           2           1   1.184453     -0.2788872       252.0145    
           3           1   1.539986     -0.2661871       247.0495    
           4           1   1.323788     -0.2585539       247.6196    
           5           1   1.467238     -0.2592871       244.4020    
           6           1   1.401637     -0.2561240       243.2184    
           7           1   1.452148     -0.2542928       240.6278    
           8           1   1.438634     -0.2515327       238.5462    
           9           1   1.459844     -0.2492508       235.8985    
          10           1   1.463118     -0.2469050       233.2818    
          11           1   1.475779     -0.2448427       230.3686    
          12           1   1.484433     -0.2429148       227.3318    
          13           1   1.495236     -0.2412203       224.0882    
          14           1   1.505559     -0.2397290       220.6768    
          15           1   1.516402     -0.2384782       217.0851    
          16           1   1.527398     -0.2374790       213.3228    
          17           1   1.538662     -0.2367579       209.3951    
          18           1   1.550182     -0.2363365       205.3123    
          19           1   1.562004     -0.2362332       201.0874    
          20           1   1.574182     -0.2364589       196.7369    
          21           1   1.586788     -0.2370142       192.2804    
          22           1   1.599906     -0.2378891       187.7398    
          23           1   1.613620     -0.2390576       183.1384    
          24           1   1.628015     -0.2404816       178.5001    
          25           1   1.643160     -0.2421102       173.8485    
          26           1   1.659112     -0.2438811       169.2054    
          27           1   1.675898     -0.2457239       164.5902    
          28           1   1.693523     -0.2475624       160.0196    
          29           1   1.711960     -0.2493162       155.5064    
          30           1   1.731151     -0.2509058       151.0599    
          31           1   1.751010     -0.2522527       146.6855    
          32           1   1.771424     -0.2532833       142.3847    
          33           1   1.792260     -0.2539293       138.1556    
          34           1   1.813363     -0.2541299       133.9934    
          35           1   1.834571     -0.2538317       129.8904    
          36           1   1.855713     -0.2529897       125.8369    
          37           1   1.876618     -0.2515681       121.8216    
          38           1   1.897121     -0.2495381       117.8318    
          39           1   1.917069     -0.2468800       113.8546    
          40           1   1.936320     -0.2435811       109.8764    
          41           1   1.954753     -0.2396370       105.8841    
          42           1   1.972264     -0.2350481       101.8650    
          43           1   1.988772     -0.2298222       97.80691    
          44           1   2.004218     -0.2239715       93.69886    
          45           1   2.018563     -0.2175144       89.53092    
          46           1   2.031787     -0.2104720       85.29444    
          47           1   2.043887     -0.2028694       80.98211    
          48           1   2.054876     -0.1947347       76.58803    
          49           1   2.064776     -0.1860978       72.10771    
          50           1   2.073621     -0.1769905       67.53815    
          51           1   2.081449     -0.1674461       62.87772    
          52           1   2.088300     -0.1574977       58.12620    
          53           1   2.094220     -0.1471786       53.28469    
          54           1   2.099248     -0.1365220       48.35561    
          55           1   2.103427     -0.1255600       43.34262    
          56           1   2.106790     -0.1143239       38.25048    
          57           1   2.109371     -0.1028435       33.08506    
          58           1   2.111197     -9.1147408E-02   27.85321    
          59           1   2.112290     -7.9262801E-02   22.56269    
          60           1   2.112669     -6.7215376E-02   17.22211    
          61           1   2.112345     -5.5029266E-02   11.84077    
          62           1   2.111327     -4.2727340E-02   6.428633    
          63           1   2.109619     -3.0331584E-02  0.9962113    
          64           1   2.107221     -1.7862428E-02  -4.445575    
          65           1   2.104131     -5.3397110E-03  -9.885457    
          66           1   2.100344      7.2170114E-03  -15.31189    
          67           1   2.095853      1.9788997E-02  -20.71320    
          68           1   2.090647      3.2357700E-02  -26.07768    
          69           1   2.084718      4.4903886E-02  -31.39369    
          70           1   2.078055      5.7408996E-02  -36.64974    
          71           1   2.070646      6.9853149E-02  -41.83467    
          72           1   2.062481      8.2216017E-02  -46.93771    
          73           1   2.053549      9.4476290E-02  -51.94857    
          74           1   2.043842      0.1066111      -56.85764    
          75           1   2.033353      0.1185968      -61.65604    
          76           1   2.022075      0.1304083      -66.33578    
          77           1   2.010008      0.1420180      -70.88985    
          78           1   1.997150      0.1533974      -75.31243    
          79           1   1.983507      0.1645155      -79.59892    
          80           1   1.969087      0.1753403      -83.74611    
          81           1   1.953902      0.1858376      -87.75230    
          82           1   1.937973      0.1959709      -91.61745    
          83           1   1.921321      0.2057032      -95.34317    
          84           1   1.903981      0.2149957      -98.93300    
          85           1   1.885989      0.2238087      -102.3923    
          86           1   1.867391      0.2321020      -105.7285    
          87           1   1.848242      0.2398359      -108.9510    
          88           1   1.828602      0.2469705      -112.0711    
          89           1   1.808544      0.2534676      -115.1023    
          90           1   1.788147      0.2592916      -118.0598    
          91           1   1.767498      0.2644097      -120.9607    
          92           1   1.746693      0.2687935      -123.8237    
          93           1   1.725836      0.2724204      -126.6688    
          94           1   1.705036      0.2752742      -129.5171    
          95           1   1.684407      0.2773457      -132.3903    
          96           1   1.664063      0.2786356      -135.3102    
          97           1   1.644125      0.2791543      -138.2986    
          98           1   1.624703      0.2789237      -141.3762    
          99           1   1.605909      0.2779756      -144.5622    
         100           1   1.587839      0.2763554      -147.8739    
         101           1   1.570584      0.2741202      -151.3257    
         102           1   1.554214      0.2713373      -154.9285    
         103           1   1.538779      0.2680857      -158.6894    
         104           1   1.524309      0.2644519      -162.6113    
         105           1   1.510810      0.2605293      -166.6923    
         106           1   1.498261      0.2564158      -170.9258    
         107           1   1.486613      0.2522084      -175.3006    
         108           1   1.475797      0.2480026      -179.8013    
         109           1   1.465720      0.2438864      -184.4087    
         110           1   1.456274      0.2399403      -189.1008    
         111           1   1.447337      0.2362305      -193.8538    
         112           1   1.438783      0.2328107      -198.6429    
         113           1   1.430485      0.2297183      -203.4436    
         114           1   1.422334      0.2269765      -208.2327    
         115           1   1.414188      0.2245915      -212.9896    
         116           1   1.406077      0.2225632      -217.6944    
         117           1   1.397544      0.2208698      -222.3376    
         118           1   1.389632      0.2195125      -226.8906    
         119           1   1.379354      0.2184179      -231.3864    
         120           1   1.373805      0.2176630      -235.7190    
         121           1   1.357005      0.2170213      -240.0910    
         122           1   1.361586      0.2168282      -244.1003    
         123           1   1.325371      0.2163643      -248.4374    
         124           1   1.358084      0.2168752      -251.9772    
         125           1   1.276479      0.2157070      -256.4195    
         126           1   1.370568      0.2175632      -259.2629    
         127           1   1.195651      0.2133330      -264.0916    
         128           1   1.408165      0.2147594      -265.8299    
         129           1   1.055243      0.2234506      -271.2081    
         130           1   1.055243      0.2234506      -271.2081    
           1           2  0.8155466     -0.2788872       252.0145    
           2           2   1.166929      0.2711215       252.0145    
           3           2   1.530458      0.2642026       247.0495    
           4           2   1.318321      0.2565510       247.6196    
           5           2   1.459186      0.2572432       244.4020    
           6           2   1.395176      0.2541572       243.2184    
           7           2   1.444842      0.2523500       240.6278    
           8           2   1.431833      0.2496344       238.5462    
           9           2   1.452791      0.2473803       235.8985    
          10           2   1.456214      0.2450651       233.2818    
          11           2   1.468803      0.2430274       230.3686    
          12           2   1.477491      0.2411231       227.3318    
          13           2   1.488270      0.2394488       224.0882    
          14           2   1.498591      0.2379753       220.6768    
          15           2   1.509416      0.2367391       217.0851    
          16           2   1.520393      0.2357512       213.3228    
          17           2   1.531631      0.2350378       209.3951    
          18           2   1.543117      0.2346200       205.3123    
          19           2   1.554894      0.2345160       201.0874    
          20           2   1.567015      0.2347366       196.7369    
          21           2   1.579550      0.2352824       192.2804    
          22           2   1.592581      0.2361435       187.7398    
          23           2   1.606193      0.2372946       183.1384    
          24           2   1.620468      0.2386977       178.5001    
          25           2   1.635479      0.2403032       173.8485    
          26           2   1.651282      0.2420492       169.2054    
          27           2   1.667908      0.2438668       164.5902    
          28           2   1.685363      0.2456806       160.0196    
          29           2   1.703625      0.2474117       155.5064    
          30           2   1.722639      0.2489815       151.0599    
          31           2   1.742325      0.2503127       146.6855    
          32           2   1.762573      0.2513331       142.3847    
          33           2   1.783253      0.2519751       138.1556    
          34           2   1.804218      0.2521793       133.9934    
          35           2   1.825307      0.2518926       129.8904    
          36           2   1.846355      0.2510708       125.8369    
          37           2   1.867193      0.2496784       121.8216    
          38           2   1.887659      0.2476871       117.8318    
          39           2   1.907603      0.2450769       113.8546    
          40           2   1.926884      0.2418352       109.8764    
          41           2   1.945382      0.2379573       105.8841    
          42           2   1.962995      0.2334429       101.8650    
          43           2   1.979641      0.2282993       97.80691    
          44           2   1.995260      0.2225378       93.69886    
          45           2   2.009813      0.2161761       89.53092    
          46           2   2.023278      0.2092341       85.29444    
          47           2   2.035652      0.2017360       80.98211    
          48           2   2.046943      0.1937087       76.58803    
          49           2   2.057175      0.1851811       72.10771    
          50           2   2.066378      0.1761836       67.53815    
          51           2   2.074588      0.1667488       62.87772    
          52           2   2.081843      0.1569085       58.12620    
          53           2   2.088187      0.1466951       53.28469    
          54           2   2.093658      0.1361408       48.35561    
          55           2   2.098296      0.1252769       43.34262    
          56           2   2.102132      0.1141340       38.25048    
          57           2   2.105200      0.1027408       33.08506    
          58           2   2.107525      9.1125727E-02   27.85321    
          59           2   2.109125      7.9315148E-02   22.56269    
          60           2   2.110020      6.7334339E-02   17.22211    
          61           2   2.110217      5.5207055E-02   11.84077    
          62           2   2.109727      4.2955801E-02   6.428633    
          63           2   2.108549      3.0602304E-02  0.9962113    
          64           2   2.106685      1.8166805E-02  -4.445575    
          65           2   2.104129      5.6689954E-03  -9.885457    
          66           2   2.100874     -6.8716486E-03  -15.31189    
          67           2   2.096914     -1.9436399E-02  -20.71320    
          68           2   2.092235     -3.2006674E-02  -26.07768    
          69           2   2.086828     -4.4563137E-02  -31.39369    
          70           2   2.080680     -5.7087094E-02  -36.64974    
          71           2   2.073776     -6.9558427E-02  -41.83467    
          72           2   2.066109     -8.1956580E-02  -46.93771    
          73           2   2.057661     -9.4259888E-02  -51.94857    
          74           2   2.048426     -0.1064451      -56.85764    
          75           2   2.038393     -0.1184881      -61.65604    
          76           2   2.027556     -0.1303633      -66.33578    
          77           2   2.015910     -0.1420425      -70.88985    
          78           2   2.003455     -0.1534965      -75.31243    
          79           2   1.990191     -0.1646937      -79.59892    
          80           2   1.976128     -0.1756012      -83.74611    
          81           2   1.961275     -0.1861840      -87.75230    
          82           2   1.945651     -0.1964045      -91.61745    
          83           2   1.929277     -0.2062250      -95.34317    
          84           2   1.912185     -0.2156055      -98.93300    
          85           2   1.894410     -0.2245055      -102.3923    
          86           2   1.875998     -0.2328833      -105.7285    
          87           2   1.857003     -0.2406983      -108.9510    
          88           2   1.837485     -0.2479098      -112.0711    
          89           2   1.817515     -0.2544782      -115.1023    
          90           2   1.797172     -0.2603672      -118.0598    
          91           2   1.776546     -0.2655431      -120.9607    
          92           2   1.755732     -0.2699767      -123.8237    
          93           2   1.734834     -0.2736449      -126.6688    
          94           2   1.713964     -0.2765308      -129.5171    
          95           2   1.693238     -0.2786253      -132.3903    
          96           2   1.672772     -0.2799289      -135.3102    
          97           2   1.652688     -0.2804523      -138.2986    
          98           2   1.633101     -0.2802175      -141.3762    
          99           2   1.614125     -0.2792571      -144.5622    
         100           2   1.595861     -0.2776172      -147.8739    
         101           2   1.578402     -0.2753561      -151.3257    
         102           2   1.561821     -0.2725417      -154.9285    
         103           2   1.546173     -0.2692545      -158.6894    
         104           2   1.531493     -0.2655820      -162.6113    
         105           2   1.517789     -0.2616189      -166.6923    
         106           2   1.505042     -0.2574641      -170.9258    
         107           2   1.493208     -0.2532157      -175.3006    
         108           2   1.482220     -0.2489703      -179.8013    
         109           2   1.471986     -0.2448165      -184.4087    
         110           2   1.462400     -0.2408356      -189.1008    
         111           2   1.453340     -0.2370941      -193.8538    
         112           2   1.444680     -0.2336462      -198.6429    
         113           2   1.436293     -0.2305295      -203.4436    
         114           2   1.428067     -0.2277671      -208.2327    
         115           2   1.419861     -0.2253653      -212.9896    
         116           2   1.411703     -0.2233239      -217.6944    
         117           2   1.403127     -0.2216205      -222.3376    
         118           2   1.395195     -0.2202566      -226.8906    
         119           2   1.384870     -0.2191575      -231.3864    
         120           2   1.379352     -0.2184017      -235.7190    
         121           2   1.362451     -0.2177595      -240.0910    
         122           2   1.367172     -0.2175711      -244.1003    
         123           2   1.330720     -0.2171081      -248.4374    
         124           2   1.363777     -0.2176328      -251.9772    
         125           2   1.281685     -0.2164611      -256.4195    
         126           2   1.376478     -0.2183495      -259.2629    
         127           2   1.200652     -0.2141255      -264.0916    
         128           2   1.414464     -0.2154608      -265.8299    
         129           2   1.067212     -0.2251186      -271.2081    
         130           2   1.055243     -0.2234506      -271.2081    
           1           3  0.8080046     -0.4649803       248.5696    
           2           3   1.180456      0.4552705       248.5696    
           3           3   1.540690      0.4574386       244.1953    
           4           3   1.318713      0.4442867       244.8003    
           5           3   1.460711      0.4422093       241.6281    
           6           3   1.392503      0.4356939       240.4625    
           7           3   1.443849      0.4319696       237.8551    
           8           3   1.430282      0.4269103       235.7751    
           9           3   1.452499      0.4227640       233.1203    
          10           3   1.456602      0.4185230       230.5086    
          11           3   1.470351      0.4146644       227.6055    
          12           3   1.480104      0.4109769       224.5899    
          13           3   1.492104      0.4075659       221.3781    
          14           3   1.503679      0.4044020       218.0121    
          15           3   1.515851      0.4015308       214.4795    
          16           3   1.528246      0.3989794       210.7912    
          17           3   1.540980      0.3967958       206.9516    
          18           3   1.554030      0.3950264       202.9699    
          19           3   1.567422      0.3937169       198.8566    
          20           3   1.581187      0.3929070       194.6249    
          21           3   1.595366      0.3926223       190.2903    
          22           3   1.610006      0.3928733       185.8701    
          23           3   1.625158      0.3936473       181.3830    
          24           3   1.640867      0.3949119       176.8481    
          25           3   1.657175      0.3966117       172.2848    
          26           3   1.674105      0.3986712       167.7114    
          27           3   1.691667      0.4009973       163.1448    
          28           3   1.709848      0.4034823       158.6000    
          29           3   1.728609      0.4060080       154.0891    
          30           3   1.747895      0.4084510       149.6217    
          31           3   1.767618      0.4106839       145.2044    
          32           3   1.787677      0.4125830       140.8408    
          33           3   1.807946      0.4140269       136.5315    
          34           3   1.828290      0.4149022       132.2747    
          35           3   1.848561      0.4151041       128.0663    
          36           3   1.868610      0.4145373       123.9002    
          37           3   1.888283      0.4131190       119.7685    
          38           3   1.907439      0.4107765       115.6626    
          39           3   1.925940      0.4074495       111.5725    
          40           3   1.943669      0.4030912       107.4882    
          41           3   1.960519      0.3976650       103.3994    
          42           3   1.976407      0.3911478       99.29588    
          43           3   1.991270      0.3835272       95.16797    
          44           3   2.005061      0.3748027       91.00645    
          45           3   2.017756      0.3649842       86.80296    
          46           3   2.029348      0.3540923       82.55001    
          47           3   2.039846      0.3421552       78.24114    
          48           3   2.049271      0.3292117       73.87100    
          49           3   2.057653      0.3153052       69.43531    
          50           3   2.065031      0.3004873       64.93100    
          51           3   2.071450      0.2848131       60.35618    
          52           3   2.076952      0.2683417       55.71011    
          53           3   2.081584      0.2511345       50.99320    
          54           3   2.085387      0.2332541       46.20696    
          55           3   2.088403      0.2147642       41.35404    
          56           3   2.090665      0.1957269       36.43808    
          57           3   2.092205      0.1762032       31.46365    
          58           3   2.093048      0.1562543       26.43628    
          59           3   2.093214      0.1359375       21.36229    
          60           3   2.092716      0.1153087       16.24877    
          61           3   2.091568      9.4421603E-02   11.10349    
          62           3   2.089772      7.3327444E-02   5.934800    
          63           3   2.087332      5.2075986E-02  0.7515882    
          64           3   2.084245      3.0714342E-02  -4.436884    
          65           3   2.080509      9.2884498E-03  -9.621023    
          66           3   2.076115     -1.2156826E-02  -14.79101    
          67           3   2.071056     -3.3578310E-02  -19.93687    
          68           3   2.065321     -5.4932684E-02  -25.04861    
          69           3   2.058902     -7.6177567E-02  -30.11631    
          70           3   2.051787     -9.7269841E-02  -35.13021    
          71           3   2.043967     -0.1181667      -40.08083    
          72           3   2.035433     -0.1388241      -44.95910    
          73           3   2.026175     -0.1591973      -49.75637    
          74           3   2.016189     -0.1792399      -54.46466    
          75           3   2.005470     -0.1989043      -59.07668    
          76           3   1.994016     -0.2181413      -63.58593    
          77           3   1.981829     -0.2368999      -67.98687    
          78           3   1.968913     -0.2551271      -72.27501    
          79           3   1.955279     -0.2727683      -76.44701    
          80           3   1.940938     -0.2897671      -80.50076    
          81           3   1.925911     -0.3060666      -84.43556    
          82           3   1.910219     -0.3216065      -88.25214    
          83           3   1.893895     -0.3363289      -91.95273    
          84           3   1.876972     -0.3501731      -95.54116    
          85           3   1.859494     -0.3630809      -99.02297    
          86           3   1.841511     -0.3749952      -102.4053    
          87           3   1.823080     -0.3858599      -105.6970    
          88           3   1.804265     -0.3956254      -108.9087    
          89           3   1.785137     -0.4042442      -112.0524    
          90           3   1.765774     -0.4116774      -115.1417    
          91           3   1.746264     -0.4178919      -118.1915    
          92           3   1.726695     -0.4228665      -121.2181    
          93           3   1.707164     -0.4265889      -124.2385    
          94           3   1.687771     -0.4290619      -127.2703    
          95           3   1.668617     -0.4303007      -130.3315    
          96           3   1.649806     -0.4303374      -133.4398    
          97           3   1.631435     -0.4292212      -136.6127    
          98           3   1.613602     -0.4270180      -139.8661    
          99           3   1.596394     -0.4238120      -143.2150    
         100           3   1.579892     -0.4197048      -146.6718    
         101           3   1.564160     -0.4148145      -150.2468    
         102           3   1.549248     -0.4092724      -153.9472    
         103           3   1.535192     -0.4032243      -157.7768    
         104           3   1.522002     -0.3968216      -161.7360    
         105           3   1.509673     -0.3902211      -165.8214    
         106           3   1.498174     -0.3835789      -170.0260    
         107           3   1.487461     -0.3770446      -174.3391    
         108           3   1.477464     -0.3707573      -178.7473    
         109           3   1.468102     -0.3648394      -183.2342    
         110           3   1.459281     -0.3593936      -187.7817    
         111           3   1.450899     -0.3544984      -192.3703    
         112           3   1.442852     -0.3502065      -196.9803    
         113           3   1.435036     -0.3465477      -201.5925    
         114           3   1.427366     -0.3435249      -206.1886    
         115           3   1.419717     -0.3411219      -210.7525    
         116           3   1.412140     -0.3393076      -215.2680    
         117           3   1.404173     -0.3380290      -219.7288    
         118           3   1.396907     -0.3372571      -224.1077    
         119           3   1.387276     -0.3368828      -228.4400    
         120           3   1.382510     -0.3369622      -232.6194    
         121           3   1.366430     -0.3372036      -236.8491    
         122           3   1.371964     -0.3380086      -240.7274    
         123           3   1.336473     -0.3383422      -244.9440    
         124           3   1.370752     -0.3400476      -248.3743    
         125           3   1.289292     -0.3390338      -252.7203    
         126           3   1.387773     -0.3423455      -255.4819    
         127           3   1.210780     -0.3368499      -260.2381    
         128           3   1.438129     -0.3382325      -261.9528    
         129           3   1.090293     -0.3549538      -267.3285    
         130           3   1.082486     -0.3537693      -267.3285    
           1           4  0.8172643     -0.3510902       249.4154    
           2           4   1.171589      0.3445739       249.4154    
           3           4   1.527450      0.3390998       245.1588    
           4           4   1.311521      0.3269575       245.6818    
           5           4   1.454324      0.3234737       242.5082    
           6           4   1.386858      0.3174425       241.2973    
           7           4   1.439295      0.3141218       238.6453    
           8           4   1.425789      0.3096473       236.5264    
           9           4   1.448479      0.3059962       233.8297    
          10           4   1.452708      0.3022578       231.1850    
          11           4   1.466662      0.2987595       228.2536    
          12           4   1.476563      0.2953980       225.2186    
          13           4   1.488720      0.2921921       221.9967    
          14           4   1.500462      0.2891488       218.6316    
          15           4   1.512826      0.2862782       215.1124    
          16           4   1.525450      0.2836044       211.4511    
          17           4   1.538460      0.2811563       207.6532    
          18           4   1.551839      0.2789684       203.7279    
          19           4   1.565617      0.2770804       199.6856    
          20           4   1.579822      0.2755293       195.5384    
          21           4   1.594487      0.2743515       191.2999    
          22           4   1.609649      0.2735737       186.9845    
          23           4   1.625341      0.2732129       182.6079    
          24           4   1.641593      0.2732744       178.1857    
          25           4   1.658424      0.2737490       173.7334    
          26           4   1.675842      0.2746125       169.2656    
          27           4   1.693835      0.2758284       164.7957    
          28           4   1.712375      0.2773444       160.3355    
          29           4   1.731411      0.2790996       155.8947    
          30           4   1.750873      0.2810213       151.4809    
          31           4   1.770670      0.2830301       147.0991    
          32           4   1.790691      0.2850398       142.7524    
          33           4   1.810813      0.2869620       138.4415    
          34           4   1.830896      0.2887039       134.1649    
          35           4   1.850799      0.2901735       129.9195    
          36           4   1.870372      0.2912798       125.7006    