 TITLE = "Post Processing Tecplot"
 VARIABLES = "X", "Y", "U", "V", "P",
 ZONE T="BIG ZONE", I=         130 , J=          66 , DATAPACKING=POINT
           1           1  0.8155466      0.2788872       220.5365    
           2           1   1.184453     -0.2788872       220.5365    
           3           1   1.539986     -0.2661871       216.0466    
           4           1   1.323788     -0.2585539       216.9205    
           5           1   1.467238     -0.2592871       213.9504    
           6           1   1.401637     -0.2561240       213.0878    
           7           1   1.452148     -0.2542928       210.7246    
           8           1   1.438634     -0.2515327       208.9031    
           9           1   1.459844     -0.2492508       206.4765    
          10           1   1.463118     -0.2469050       204.0837    
          11           1   1.475779     -0.2448427       201.3775    
          12           1   1.484433     -0.2429148       198.5459    
          13           1   1.495236     -0.2412203       195.4990    
          14           1   1.505559     -0.2397290       192.2820    
          15           1   1.516402     -0.2384782       188.8796    
          16           1   1.527398     -0.2374790       185.3016    
          17           1   1.538662     -0.2367579       181.5503    
          18           1   1.550182     -0.2363365       177.6326    
          19           1   1.562004     -0.2362332       173.5572    
          20           1   1.574182     -0.2364589       169.3358    
          21           1   1.586788     -0.2370142       164.9831    
          22           1   1.599906     -0.2378891       160.5167    
          23           1   1.613620     -0.2390576       155.9569    
          24           1   1.628015     -0.2404816       151.3257    
          25           1   1.643160     -0.2421102       146.6465    
          26           1   1.659112     -0.2438811       141.9431    
          27           1   1.675898     -0.2457239       137.2388    
          28           1   1.693523     -0.2475624       132.5554    
          29           1   1.711960     -0.2493162       127.9129    
          30           1   1.731151     -0.2509058       123.3286    
          31           1   1.751010     -0.2522527       118.8170    
          32           1   1.771424     -0.2532833       114.3892    
          33           1   1.792260     -0.2539293       110.0529    
          34           1   1.813363     -0.2541299       105.8129    
          35           1   1.834571     -0.2538317       101.6706    
          36           1   1.855713     -0.2529897       97.62480    
          37           1   1.876618     -0.2515681       93.67171    
          38           1   1.897121     -0.2495381       89.80552    
          39           1   1.917069     -0.2468800       86.01865    
          40           1   1.936320     -0.2435811       82.30228    
          41           1   1.954753     -0.2396370       78.64661    
          42           1   1.972264     -0.2350481       75.04131    
          43           1   1.988772     -0.2298222       71.47576    
          44           1   2.004218     -0.2239715       67.93943    
          45           1   2.018563     -0.2175144       64.42204    
          46           1   2.031787     -0.2104720       60.91387    
          47           1   2.043887     -0.2028694       57.40587    
          48           1   2.054876     -0.1947347       53.88987    
          49           1   2.064776     -0.1860978       50.35862    
          50           1   2.073621     -0.1769905       46.80595    
          51           1   2.081449     -0.1674461       43.22681    
          52           1   2.088300     -0.1574977       39.61724    
          53           1   2.094220     -0.1471786       35.97446    
          54           1   2.099248     -0.1365220       32.29690    
          55           1   2.103427     -0.1255600       28.58407    
          56           1   2.106790     -0.1143239       24.83659    
          57           1   2.109371     -0.1028435       21.05616    
          58           1   2.111197     -9.1147408E-02   17.24544    
          59           1   2.112290     -7.9262801E-02   13.40803    
          60           1   2.112669     -6.7215376E-02   9.548351    
          61           1   2.112345     -5.5029266E-02   5.671624    
          62           1   2.111327     -4.2727340E-02   1.783693    
          63           1   2.109619     -3.0331584E-02  -2.108974    
          64           1   2.107221     -1.7862428E-02  -5.999489    
          65           1   2.104131     -5.3397110E-03  -9.880601    
          66           1   2.100344      7.2170114E-03  -13.74480    
          67           1   2.095853      1.9788997E-02  -17.58444    
          68           1   2.090647      3.2357700E-02  -21.39183    
          69           1   2.084718      4.4903886E-02  -25.15941    
          70           1   2.078055      5.7408996E-02  -28.87979    
          71           1   2.070646      6.9853149E-02  -32.54596    
          72           1   2.062481      8.2216017E-02  -36.15135    
          73           1   2.053549      9.4476290E-02  -39.68994    
          74           1   2.043842      0.1066111      -43.15648    
          75           1   2.033353      0.1185968      -46.54646    
          76           1   2.022075      0.1304083      -49.85637    
          77           1   2.010008      0.1420180      -53.08373    
          78           1   1.997150      0.1533974      -56.22724    
          79           1   1.983507      0.1645155      -59.28691    
          80           1   1.969087      0.1753403      -62.26409    
          81           1   1.953902      0.1858376      -65.16161    
          82           1   1.937973      0.1959709      -67.98384    
          83           1   1.921321      0.2057032      -70.73674    
          84           1   1.903981      0.2149957      -73.42792    
          85           1   1.885989      0.2238087      -76.06657    
          86           1   1.867391      0.2321020      -78.66357    
          87           1   1.848242      0.2398359      -81.23132    
          88           1   1.828602      0.2469705      -83.78368    
          89           1   1.808544      0.2534676      -86.33589    
          90           1   1.788147      0.2592916      -88.90430    
          91           1   1.767498      0.2644097      -91.50620    
          92           1   1.746693      0.2687935      -94.15946    
          93           1   1.725836      0.2724204      -96.88226    
          94           1   1.705036      0.2752742      -99.69266    
          95           1   1.684407      0.2773457      -102.6081    
          96           1   1.664063      0.2786356      -105.6451    
          97           1   1.644125      0.2791543      -108.8184    
          98           1   1.624703      0.2789237      -112.1408    
          99           1   1.605909      0.2779756      -115.6225    
         100           1   1.587839      0.2763554      -119.2706    
         101           1   1.570584      0.2741202      -123.0886    
         102           1   1.554214      0.2713373      -127.0761    
         103           1   1.538779      0.2680857      -131.2288    
         104           1   1.524309      0.2644519      -135.5382    
         105           1   1.510810      0.2605293      -139.9917    
         106           1   1.498261      0.2564158      -144.5729    
         107           1   1.486613      0.2522084      -149.2624    
         108           1   1.475797      0.2480026      -154.0380    
         109           1   1.465720      0.2438864      -158.8758    
         110           1   1.456274      0.2399403      -163.7511    
         111           1   1.447337      0.2362305      -168.6392    
         112           1   1.438783      0.2328107      -173.5166    
         113           1   1.430485      0.2297183      -178.3616    
         114           1   1.422334      0.2269765      -183.1545    
         115           1   1.414188      0.2245915      -187.8799    
         116           1   1.406077      0.2225632      -192.5216    
         117           1   1.397544      0.2208698      -197.0767    
         118           1   1.389632      0.2195125      -201.5166    
         119           1   1.379354      0.2184179      -205.8859    
         120           1   1.373805      0.2176630      -210.0668    
         121           1   1.357005      0.2170213      -214.2865    
         122           1   1.361586      0.2168282      -218.1136    
         123           1   1.325371      0.2163643      -222.2780    
         124           1   1.358084      0.2168752      -225.6095    
         125           1   1.276479      0.2157070      -229.8706    
         126           1   1.370568      0.2175632      -232.4741    
         127           1   1.195651      0.2133330      -237.1156    
         128           1   1.408165      0.2147594      -238.6482    
         129           1   1.055243      0.2234506      -243.6821    
         130           1   1.055243      0.2234506      -243.6821    
           1           2  0.8155466     -0.2788872       220.5365    
           2           2   1.166929      0.2711215       220.5365    
           3           2   1.530458      0.2642026       216.0466    
           4           2   1.318321      0.2565510       216.9205    
           5           2   1.459186      0.2572432       213.9504    
           6           2   1.395176      0.2541572       213.0878    
           7           2   1.444842      0.2523500       210.7246    
           8           2   1.431833      0.2496344       208.9031    
           9           2   1.452791      0.2473803       206.4765    
          10           2   1.456214      0.2450651       204.0837    
          11           2   1.468803      0.2430274       201.3775    
          12           2   1.477491      0.2411231       198.5459    
          13           2   1.488270      0.2394488       195.4990    
          14           2   1.498591      0.2379753       192.2820    
          15           2   1.509416      0.2367391       188.8796    
          16           2   1.520393      0.2357512       185.3016    
          17           2   1.531631      0.2350378       181.5503    
          18           2   1.543117      0.2346200       177.6326    
          19           2   1.554894      0.2345160       173.5572    
          20           2   1.567015      0.2347366       169.3358    
          21           2   1.579550      0.2352824       164.9831    
          22           2   1.592581      0.2361435       160.5167    
          23           2   1.606193      0.2372946       155.9569    
          24           2   1.620468      0.2386977       151.3257    
          25           2   1.635479      0.2403032       146.6465    
          26           2   1.651282      0.2420492       141.9431    
          27           2   1.667908      0.2438668       137.2388    
          28           2   1.685363      0.2456806       132.5554    
          29           2   1.703625      0.2474117       127.9129    
          30           2   1.722639      0.2489815       123.3286    
          31           2   1.742325      0.2503127       118.8170    
          32           2   1.762573      0.2513331       114.3892    
          33           2   1.783253      0.2519751       110.0529    
          34           2   1.804218      0.2521793       105.8129    
          35           2   1.825307      0.2518926       101.6706    
          36           2   1.846355      0.2510708       97.62480    
          37           2   1.867193      0.2496784       93.67171    
          38           2   1.887659      0.2476871       89.80552    
          39           2   1.907603      0.2450769       86.01865    
          40           2   1.926884      0.2418352       82.30228    
          41           2   1.945382      0.2379573       78.64661    
          42           2   1.962995      0.2334429       75.04131    
          43           2   1.979641      0.2282993       71.47576    
          44           2   1.995260      0.2225378       67.93943    
          45           2   2.009813      0.2161761       64.42204    
          46           2   2.023278      0.2092341       60.91387    
          47           2   2.035652      0.2017360       57.40587    
          48           2   2.046943      0.1937087       53.88987    
          49           2   2.057175      0.1851811       50.35862    
          50           2   2.066378      0.1761836       46.80595    
          51           2   2.074588      0.1667488       43.22681    
          52           2   2.081843      0.1569085       39.61724    
          53           2   2.088187      0.1466951       35.97446    
          54           2   2.093658      0.1361408       32.29690    
          55           2   2.098296      0.1252769       28.58407    
          56           2   2.102132      0.1141340       24.83659    
          57           2   2.105200      0.1027408       21.05616    
          58           2   2.107525      9.1125727E-02   17.24544    
          59           2   2.109125      7.9315148E-02   13.40803    
          60           2   2.110020      6.7334339E-02   9.548351    
          61           2   2.110217      5.5207055E-02   5.671624    
          62           2   2.109727      4.2955801E-02   1.783693    
          63           2   2.108549      3.0602304E-02  -2.108974    
          64           2   2.106685      1.8166805E-02  -5.999489    
          65           2   2.104129      5.6689954E-03  -9.880601    
          66           2   2.100874     -6.8716486E-03  -13.74480    
          67           2   2.096914     -1.9436399E-02  -17.58444    
          68           2   2.092235     -3.2006674E-02  -21.39183    
          69           2   2.086828     -4.4563137E-02  -25.15941    
          70           2   2.080680     -5.7087094E-02  -28.87979    
          71           2   2.073776     -6.9558427E-02  -32.54596    
          72           2   2.066109     -8.1956580E-02  -36.15135    
          73           2   2.057661     -9.4259888E-02  -39.68994    
          74           2   2.048426     -0.1064451      -43.15648    
          75           2   2.038393     -0.1184881      -46.54646    
          76           2   2.027556     -0.1303633      -49.85637    
          77           2   2.015910     -0.1420425      -53.08373    
          78           2   2.003455     -0.1534965      -56.22724    
          79           2   1.990191     -0.1646937      -59.28691    
          80           2   1.976128     -0.1756012      -62.26409    
          81           2   1.961275     -0.1861840      -65.16161    
          82           2   1.945651     -0.1964045      -67.98384    
          83           2   1.929277     -0.2062250      -70.73674    
          84           2   1.912185     -0.2156055      -73.42792    
          85           2   1.894410     -0.2245055      -76.06657    
          86           2   1.875998     -0.2328833      -78.66357    
          87           2   1.857003     -0.2406983      -81.23132    
          88           2   1.837485     -0.2479098      -83.78368    
          89           2   1.817515     -0.2544782      -86.33589    
          90           2   1.797172     -0.2603672      -88.90430    
          91           2   1.776546     -0.2655431      -91.50620    
          92           2   1.755732     -0.2699767      -94.15946    
          93           2   1.734834     -0.2736449      -96.88226    
          94           2   1.713964     -0.2765308      -99.69266    
          95           2   1.693238     -0.2786253      -102.6081    
          96           2   1.672772     -0.2799289      -105.6451    
          97           2   1.652688     -0.2804523      -108.8184    
          98           2   1.633101     -0.2802175      -112.1408    
          99           2   1.614125     -0.2792571      -115.6225    
         100           2   1.595861     -0.2776172      -119.2706    
         101           2   1.578402     -0.2753561      -123.0886    
         102           2   1.561821     -0.2725417      -127.0761    
         103           2   1.546173     -0.2692545      -131.2288    
         104           2   1.531493     -0.2655820      -135.5382    
         105           2   1.517789     -0.2616189      -139.9917    
         106           2   1.505042     -0.2574641      -144.5729    
         107           2   1.493208     -0.2532157      -149.2624    
         108           2   1.482220     -0.2489703      -154.0380    
         109           2   1.471986     -0.2448165      -158.8758    
         110           2   1.462400     -0.2408356      -163.7511    
         111           2   1.453340     -0.2370941      -168.6392    
         112           2   1.444680     -0.2336462      -173.5166    
         113           2   1.436293     -0.2305295      -178.3616    
         114           2   1.428067     -0.2277671      -183.1545    
         115           2   1.419861     -0.2253653      -187.8799    
         116           2   1.411703     -0.2233239      -192.5216    
         117           2   1.403127     -0.2216205      -197.0767    
         118           2   1.395195     -0.2202566      -201.5166    
         119           2   1.384870     -0.2191575      -205.8859    
         120           2   1.379352     -0.2184017      -210.0668    
         121           2   1.362451     -0.2177595      -214.2865    
         122           2   1.367172     -0.2175711      -218.1136    
         123           2   1.330720     -0.2171081      -222.2780    
         124           2   1.363777     -0.2176328      -225.6095    
         125           2   1.281685     -0.2164611      -229.8706    
         126           2   1.376478     -0.2183495      -232.4741    
         127           2   1.200652     -0.2141255      -237.1156    
         128           2   1.414464     -0.2154608      -238.6482    
         129           2   1.067212     -0.2251186      -243.6821    
         130           2   1.055243     -0.2234506      -243.6821    
           1           3  0.8080046     -0.4649803       217.6868    
           2           3   1.180456      0.4552705       217.6868    
           3           3   1.540690      0.4574386       213.7827    
           4           3   1.318713      0.4442867       214.6579    
           5           3   1.460711      0.4422093       211.7157    
           6           3   1.392503      0.4356939       210.8447    
           7           3   1.443849      0.4319696       208.4429    
           8           3   1.430282      0.4269103       206.6031    
           9           3   1.452499      0.4227640       204.1504    
          10           3   1.456602      0.4185230       201.7461    
          11           3   1.470351      0.4146644       199.0338    
          12           3   1.480104      0.4109769       196.2083    
          13           3   1.492104      0.4075659       193.1783    
          14           3   1.503679      0.4044020       189.9916    
          15           3   1.515851      0.4015308       186.6336    
          16           3   1.528246      0.3989794       183.1156    
          17           3   1.540980      0.3967958       179.4404    
          18           3   1.554030      0.3950264       175.6149    
          19           3   1.567422      0.3937169       171.6469    
          20           3   1.581187      0.3929070       167.5465    
          21           3   1.595366      0.3926223       163.3258    
          22           3   1.610006      0.3928733       158.9989    
          23           3   1.625158      0.3936473       154.5822    
          24           3   1.640867      0.3949119       150.0935    
          25           3   1.657175      0.3966117       145.5519    
          26           3   1.674105      0.3986712       140.9768    
          27           3   1.691667      0.4009973       136.3878    
          28           3   1.709848      0.4034823       131.8035    
          29           3   1.728609      0.4060080       127.2415    
          30           3   1.747895      0.4084510       122.7174    
          31           3   1.767618      0.4106839       118.2449    
          32           3   1.787677      0.4125830       113.8350    
          33           3   1.807946      0.4140269       109.4965    
          34           3   1.828290      0.4149022       105.2352    
          35           3   1.848561      0.4151041       101.0548    
          36           3   1.868610      0.4145373       96.95644    
          37           3   1.888283      0.4131190       92.93901    
          38           3   1.907439      0.4107765       88.99963    
          39           3   1.925940      0.4074495       85.13377    
          40           3   1.943669      0.4030912       81.33559    
          41           3   1.960519      0.3976650       77.59827    
          42           3   1.976407      0.3911478       73.91416    
          43           3   1.991270      0.3835272       70.27525    
          44           3   2.005061      0.3748027       66.67326    
          45           3   2.017756      0.3649842       63.09998    
          46           3   2.029348      0.3540923       59.54737    
          47           3   2.039846      0.3421552       56.00782    
          48           3   2.049271      0.3292117       52.47429    
          49           3   2.057653      0.3153052       48.94036    
          50           3   2.065031      0.3004873       45.40036    
          51           3   2.071450      0.2848131       41.84956    
          52           3   2.076952      0.2683417       38.28403    
          53           3   2.081584      0.2511345       34.70078    
          54           3   2.085387      0.2332541       31.09781    
          55           3   2.088403      0.2147642       27.47404    
          56           3   2.090665      0.1957269       23.82932    
          57           3   2.092205      0.1762032       20.16443    
          58           3   2.093048      0.1562543       16.48097    
          59           3   2.093214      0.1359375       12.78138    
          60           3   2.092716      0.1153087       9.068810    
          61           3   2.091568      9.4421603E-02   5.347093    
          62           3   2.089772      7.3327444E-02   1.620667    
          63           3   2.087332      5.2075986E-02  -2.105508    
          64           3   2.084245      3.0714342E-02  -5.826073    
          65           3   2.080509      9.2884498E-03  -9.535344    
          66           3   2.076115     -1.2156826E-02  -13.22743    
          67           3   2.071056     -3.3578310E-02  -16.89627    
          68           3   2.065321     -5.4932684E-02  -20.53584    
          69           3   2.058902     -7.6177567E-02  -24.14014    
          70           3   2.051787     -9.7269841E-02  -27.70343    
          71           3   2.043967     -0.1181667      -31.22024    
          72           3   2.035433     -0.1388241      -34.68553    
          73           3   2.026175     -0.1591973      -38.09477    
          74           3   2.016189     -0.1792399      -41.44410    
          75           3   2.005470     -0.1989043      -44.73034    
          76           3   1.994016     -0.2181413      -47.95121    
          77           3   1.981829     -0.2368999      -51.10533    
          78           3   1.968913     -0.2551271      -54.19239    
          79           3   1.955279     -0.2727683      -57.21319    
          80           3   1.940938     -0.2897671      -60.16972    
          81           3   1.925911     -0.3060666      -63.06524    
          82           3   1.910219     -0.3216065      -65.90430    
          83           3   1.893895     -0.3363289      -68.69283    
          84           3   1.876972     -0.3501731      -71.43805    
          85           3   1.859494     -0.3630809      -74.14859    
          86           3   1.841511     -0.3749952      -76.83434    
          87           3   1.823080     -0.3858599      -79.50639    
          88           3   1.804265     -0.3956254      -82.17697    
          89           3   1.785137     -0.4042442      -84.85932    
          90           3   1.765774     -0.4116774      -87.56740    
          91           3   1.746264     -0.4178919      -90.31573    
          92           3   1.726695     -0.4228665      -93.11917    
          93           3   1.707164     -0.4265889      -95.99252    
          94           3   1.687771     -0.4290619      -98.95022    
          95           3   1.668617     -0.4303007      -102.0060    
          96           3   1.649806     -0.4303374      -105.1723    
          97           3   1.631435     -0.4292212      -108.4603    
          98           3   1.613602     -0.4270180      -111.8789    
          99           3   1.596394     -0.4238120      -115.4347    
         100           3   1.579892     -0.4197048      -119.1319    
         101           3   1.564160     -0.4148145      -122.9713    
         102           3   1.549248     -0.4092724      -126.9509    
         103           3   1.535192     -0.4032243      -131.0650    
         104           3   1.522002     -0.3968216      -135.3050    
         105           3   1.509673     -0.3902211      -139.6591    
         106           3   1.498174     -0.3835789      -144.1128    
         107           3   1.487461     -0.3770446      -148.6492    
         108           3   1.477464     -0.3707573      -153.2496    
         109           3   1.468102     -0.3648394      -157.8943    
         110           3   1.459281     -0.3593936      -162.5633    
         111           3   1.450899     -0.3544984      -167.2366    
         112           3   1.442852     -0.3502065      -171.8955    
         113           3   1.435036     -0.3465477      -176.5225    
         114           3   1.427366     -0.3435249      -181.1020    
         115           3   1.419717     -0.3411219      -185.6214    
         116           3   1.412140     -0.3393076      -190.0669    
         117           3   1.404173     -0.3380290      -194.4372    
         118           3   1.396907     -0.3372571      -198.7041    
         119           3   1.387276     -0.3368828      -202.9130    
         120           3   1.382510     -0.3369622      -206.9456    
         121           3   1.366430     -0.3372036      -211.0284    
         122           3   1.371964     -0.3380086      -214.7313    
         123           3   1.336473     -0.3383422      -218.7816    
         124           3   1.370752     -0.3400476      -222.0118    
         125           3   1.289292     -0.3390338      -226.1823    
         126           3   1.387773     -0.3423455      -228.7147    
         127           3   1.210780     -0.3368499      -233.2873    
         128           3   1.438129     -0.3382325      -234.8062    
         129           3   1.090293     -0.3549538      -239.8479    
         130           3   1.082486     -0.3537693      -239.8479    
           1           4  0.8172643     -0.3510902       218.8974    
           2           4   1.171589      0.3445739       218.8974    
           3           4   1.527450      0.3390998       215.0659    
           4           4   1.311521      0.3269575       215.8387    
           5           4   1.454324      0.3234737       212.8795    
           6           4   1.386858      0.3174425       211.9457    
           7           4   1.439295      0.3141218       209.4882    
           8           4   1.425789      0.3096473       207.5979    
           9           4   1.448479      0.3059962       205.0938    
          10           4   1.452708      0.3022578       202.6477    
          11           4   1.466662      0.2987595       199.8986    
          12           4   1.476563      0.2953980       197.0450    
          13           4   1.488720      0.2921921       193.9954    
          14           4   1.500462      0.2891488       190.7991    
          15           4   1.512826      0.2862782       187.4423    
          16           4   1.525450      0.2836044       183.9378    
          17           4   1.538460      0.2811563       180.2893    
          18           4   1.551839      0.2789684       176.5048    
          19           4   1.565617      0.2770804       172.5926    
          20           4   1.579822      0.2755293       168.5626    
          21           4   1.594487      0.2743515       164.4263    
          22           4   1.609649      0.2735737       160.1967    
          23           4   1.625341      0.2732129       155.8881    
          24           4   1.641593      0.2732744       151.5157    
          25           4   1.658424      0.2737490       147.0955    
          26           4   1.675842      0.2746125       142.6438    
          27           4   1.693835      0.2758284       138.1766    
          28           4   1.712375      0.2773444       133.7093    
          29           4   1.731411      0.2790996       129.2561    
          30           4   1.750873      0.2810213       124.8299    
          31           4   1.770670      0.2830301       120.4420    
          32           4   1.790691      0.2850398       116.1016    
          33           4   1.810813      0.2869620       111.8158    
          34           4   1.830896      0.2887039       107.5900    
          35           4   1.850799      0.2901735       103.4274    
          36           4   1.870372      0.2912798       99.32940    