 TITLE = "Post Processing Tecplot"
 VARIABLES = "X", "Y", "coeff", "coeff_dx2_m1", "coeff_dx2_p1", "coeff_dy2_m1", 
 "coeff_dy2_p1"
 ZONE T="BIG ZONE", I=         130 , J=          66 , DATAPACKING=POINT
           1           1   1.000000       1.000000       1.000000    
   1.000000       1.000000    
           2           1   1.000000       1.000000       1.000000    
   1.000000       1.000000    
           3           1   1.000000       1.000000       1.000000    
   1.000000       1.000000    
           4           1   1.000000       1.000000       1.000000    
   1.000000       1.000000    
           5           1   1.000000       1.000000       1.000000    
   1.000000       1.000000    
           6           1   1.000000       1.000000       1.000000    
   1.000000       1.000000    
           7           1   1.000000       1.000000       1.000000    
   1.000000       1.000000    
           8           1   1.000000       1.000000       1.000000    
   1.000000       1.000000    
           9           1   1.000000       1.000000       1.000000    
   1.000000       1.000000    
          10           1   1.000000       1.000000       1.000000    
   1.000000       1.000000    
          11           1   1.000000       1.000000       1.000000    
   1.000000       1.000000    
          12           1   1.000000       1.000000       1.000000    
   1.000000       1.000000    
          13           1   1.000000       1.000000       1.000000    
   1.000000       1.000000    
          14           1   1.000000       1.000000       1.000000    
   1.000000       1.000000    
          15           1   1.000000       1.000000       1.000000    
   1.000000       1.000000    
          16           1   1.000000       1.000000       1.000000    
   1.000000       1.000000    
          17           1   1.000000       1.000000       1.000000    
   1.000000       1.000000    
          18           1   1.000000       1.000000       1.000000    
   1.000000       1.000000    
          19           1   1.000000       1.000000       1.000000    
   1.000000       1.000000    
          20           1   1.000000       1.000000       1.000000    
   1.000000       1.000000    
          21           1   1.000000       1.000000       1.000000    
   1.000000       1.000000    
          22           1   1.000000       1.000000       1.000000    
   1.000000       1.000000    
          23           1   1.000000       1.000000       1.000000    
   1.000000       1.000000    
          24           1   1.000000       1.000000       1.000000    
   1.000000       1.000000    
          25           1   1.000000       1.000000       1.000000    
   1.000000       1.000000    
          26           1   1.000000       1.000000       1.000000    
   1.000000       1.000000    
          27           1   1.000000       1.000000       1.000000    
   1.000000       1.000000    
          28           1   1.000000       1.000000       1.000000    
   1.000000       1.000000    
          29           1   1.000000       1.000000       1.000000    
   1.000000       1.000000    
          30           1   1.000000       1.000000       1.000000    
   1.000000       1.000000    
          31           1   1.000000       1.000000       1.000000    
   1.000000       1.000000    
          32           1   1.000000       1.000000       1.000000    
   1.000000       1.000000    
          33           1   1.000000       1.000000       1.000000    
   1.000000       1.000000    
          34           1   1.000000       1.000000       1.000000    
   1.000000       1.000000    
          35           1   1.000000       1.000000       1.000000    
   1.000000       1.000000    
          36           1   1.000000       1.000000       1.000000    
   1.000000       1.000000    
          37           1   1.000000       1.000000       1.000000    
   1.000000       1.000000    
          38           1   1.000000       1.000000       1.000000    
   1.000000       1.000000    
          39           1   1.000000       1.000000       1.000000    
   1.000000       1.000000    
          40           1   1.000000       1.000000       1.000000    
   1.000000       1.000000    
          41           1   1.000000       1.000000       1.000000    
   1.000000       1.000000    
          42           1   1.000000       1.000000       1.000000    
   1.000000       1.000000    
          43           1   1.000000       1.000000       1.000000    
   1.000000       1.000000    
          44           1   1.000000       1.000000       1.000000    
   1.000000       1.000000    
          45           1   1.000000       1.000000       1.000000    
   1.000000       1.000000    
          46           1   1.000000       1.000000       1.000000    
   1.000000       1.000000    
          47           1   1.000000       1.000000       1.000000    
   1.000000       1.000000    
          48           1   1.000000       1.000000       1.000000    
   1.000000       1.000000    
          49           1   1.000000       1.000000       1.000000    
   1.000000       1.000000    
          50           1   1.000000       1.000000       1.000000    
   1.000000       1.000000    
          51           1   1.000000       1.000000       1.000000    
   1.000000       1.000000    
          52           1   1.000000       1.000000       1.000000    
   1.000000       1.000000    
          53           1   1.000000       1.000000       1.000000    
   1.000000       1.000000    
          54           1   1.000000       1.000000       1.000000    
   1.000000       1.000000    
          55           1   1.000000       1.000000       1.000000    
   1.000000       1.000000    
          56           1   1.000000       1.000000       1.000000    
   1.000000       1.000000    
          57           1   1.000000       1.000000       1.000000    
   1.000000       1.000000    
          58           1   1.000000       1.000000       1.000000    
   1.000000       1.000000    
          59           1   1.000000       1.000000       1.000000    
   1.000000       1.000000    
          60           1   1.000000       1.000000       1.000000    
   1.000000       1.000000    
          61           1   1.000000       1.000000       1.000000    
   1.000000       1.000000    
          62           1   1.000000       1.000000       1.000000    
   1.000000       1.000000    
          63           1   1.000000       1.000000       1.000000    
   1.000000       1.000000    
          64           1   1.000000       1.000000       1.000000    
   1.000000       1.000000    
          65           1   1.000000       1.000000       1.000000    
   1.000000       1.000000    
          66           1   1.000000       1.000000       1.000000    
   1.000000       1.000000    
          67           1   1.000000       1.000000       1.000000    
   1.000000       1.000000    
          68           1   1.000000       1.000000       1.000000    
   1.000000       1.000000    
          69           1   1.000000       1.000000       1.000000    
   1.000000       1.000000    
          70           1   1.000000       1.000000       1.000000    
   1.000000       1.000000    
          71           1   1.000000       1.000000       1.000000    
   1.000000       1.000000    
          72           1   1.000000       1.000000       1.000000    
   1.000000       1.000000    
          73           1   1.000000       1.000000       1.000000    
   1.000000       1.000000    
          74           1   1.000000       1.000000       1.000000    
   1.000000       1.000000    
          75           1   1.000000       1.000000       1.000000    
   1.000000       1.000000    
          76           1   1.000000       1.000000       1.000000    
   1.000000       1.000000    
          77           1   1.000000       1.000000       1.000000    
   1.000000       1.000000    
          78           1   1.000000       1.000000       1.000000    
   1.000000       1.000000    
          79           1   1.000000       1.000000       1.000000    
   1.000000       1.000000    
          80           1   1.000000       1.000000       1.000000    
   1.000000       1.000000    
          81           1   1.000000       1.000000       1.000000    
   1.000000       1.000000    
          82           1   1.000000       1.000000       1.000000    
   1.000000       1.000000    
          83           1   1.000000       1.000000       1.000000    
   1.000000       1.000000    
          84           1   1.000000       1.000000       1.000000    
   1.000000       1.000000    
          85           1   1.000000       1.000000       1.000000    
   1.000000       1.000000    
          86           1   1.000000       1.000000       1.000000    
   1.000000       1.000000    
          87           1   1.000000       1.000000       1.000000    
   1.000000       1.000000    
          88           1   1.000000       1.000000       1.000000    
   1.000000       1.000000    
          89           1   1.000000       1.000000       1.000000    
   1.000000       1.000000    
          90           1   1.000000       1.000000       1.000000    
   1.000000       1.000000    
          91           1   1.000000       1.000000       1.000000    
   1.000000       1.000000    
          92           1   1.000000       1.000000       1.000000    
   1.000000       1.000000    
          93           1   1.000000       1.000000       1.000000    
   1.000000       1.000000    
          94           1   1.000000       1.000000       1.000000    
   1.000000       1.000000    
          95           1   1.000000       1.000000       1.000000    
   1.000000       1.000000    
          96           1   1.000000       1.000000       1.000000    
   1.000000       1.000000    
          97           1   1.000000       1.000000       1.000000    
   1.000000       1.000000    
          98           1   1.000000       1.000000       1.000000    
   1.000000       1.000000    
          99           1   1.000000       1.000000       1.000000    
   1.000000       1.000000    
         100           1   1.000000       1.000000       1.000000    
   1.000000       1.000000    
         101           1   1.000000       1.000000       1.000000    
   1.000000       1.000000    
         102           1   1.000000       1.000000       1.000000    
   1.000000       1.000000    
         103           1   1.000000       1.000000       1.000000    
   1.000000       1.000000    
         104           1   1.000000       1.000000       1.000000    
   1.000000       1.000000    
         105           1   1.000000       1.000000       1.000000    
   1.000000       1.000000    
         106           1   1.000000       1.000000       1.000000    
   1.000000       1.000000    
         107           1   1.000000       1.000000       1.000000    
   1.000000       1.000000    
         108           1   1.000000       1.000000       1.000000    
   1.000000       1.000000    
         109           1   1.000000       1.000000       1.000000    
   1.000000       1.000000    
         110           1   1.000000       1.000000       1.000000    
   1.000000       1.000000    
         111           1   1.000000       1.000000       1.000000    
   1.000000       1.000000    
         112           1   1.000000       1.000000       1.000000    
   1.000000       1.000000    
         113           1   1.000000       1.000000       1.000000    
   1.000000       1.000000    
         114           1   1.000000       1.000000       1.000000    
   1.000000       1.000000    
         115           1   1.000000       1.000000       1.000000    
   1.000000       1.000000    
         116           1   1.000000       1.000000       1.000000    
   1.000000       1.000000    
         117           1   1.000000       1.000000       1.000000    
   1.000000       1.000000    
         118           1   1.000000       1.000000       1.000000    
   1.000000       1.000000    
         119           1   1.000000       1.000000       1.000000    
   1.000000       1.000000    
         120           1   1.000000       1.000000       1.000000    
   1.000000       1.000000    
         121           1   1.000000       1.000000       1.000000    
   1.000000       1.000000    
         122           1   1.000000       1.000000       1.000000    
   1.000000       1.000000    
         123           1   1.000000       1.000000       1.000000    
   1.000000       1.000000    
         124           1   1.000000       1.000000       1.000000    
   1.000000       1.000000    
         125           1   1.000000       1.000000       1.000000    
   1.000000       1.000000    
         126           1   1.000000       1.000000       1.000000    
   1.000000       1.000000    
         127           1   1.000000       1.000000       1.000000    
   1.000000       1.000000    
         128           1   1.000000       1.000000       1.000000    
   1.000000       1.000000    
         129           1   1.000000       1.000000       1.000000    
   1.000000       1.000000    
         130           1   1.000000       1.000000       1.000000    
   1.000000       1.000000    
           1           2   1.000000       1.000000       1.000000    
   1.000000       1.000000    
           2           2   1.004369      1.0922668E-03  1.0922668E-03
  1.0922668E-03  1.0922668E-03
           3           2   1.004369      1.0922668E-03  1.0922668E-03
  1.0922668E-03  1.0922668E-03
           4           2   1.004369      1.0922668E-03  1.0922668E-03
  1.0922668E-03  1.0922668E-03
           5           2   1.004369      1.0922668E-03  1.0922668E-03
  1.0922668E-03  1.0922668E-03
           6           2   1.004369      1.0922668E-03  1.0922668E-03
  1.0922668E-03  1.0922668E-03
           7           2   1.004369      1.0922668E-03  1.0922668E-03
  1.0922668E-03  1.0922668E-03
           8           2   1.004369      1.0922668E-03  1.0922668E-03
  1.0922668E-03  1.0922668E-03
           9           2   1.004369      1.0922668E-03  1.0922668E-03
  1.0922668E-03  1.0922668E-03
          10           2   1.004369      1.0922668E-03  1.0922668E-03
  1.0922668E-03  1.0922668E-03
          11           2   1.004369      1.0922668E-03  1.0922668E-03
  1.0922668E-03  1.0922668E-03
          12           2   1.004369      1.0922668E-03  1.0922668E-03
  1.0922668E-03  1.0922668E-03
          13           2   1.004369      1.0922668E-03  1.0922668E-03
  1.0922668E-03  1.0922668E-03
          14           2   1.004369      1.0922668E-03  1.0922668E-03
  1.0922668E-03  1.0922668E-03
          15           2   1.004369      1.0922668E-03  1.0922668E-03
  1.0922668E-03  1.0922668E-03
          16           2   1.004369      1.0922668E-03  1.0922668E-03
  1.0922668E-03  1.0922668E-03
          17           2   1.004369      1.0922668E-03  1.0922668E-03
  1.0922668E-03  1.0922668E-03
          18           2   1.004369      1.0922668E-03  1.0922668E-03
  1.0922668E-03  1.0922668E-03
          19           2   1.004369      1.0922668E-03  1.0922668E-03
  1.0922668E-03  1.0922668E-03
          20           2   1.004369      1.0922668E-03  1.0922668E-03
  1.0922668E-03  1.0922668E-03
          21           2   1.004369      1.0922668E-03  1.0922668E-03
  1.0922668E-03  1.0922668E-03
          22           2   1.004369      1.0922668E-03  1.0922668E-03
  1.0922668E-03  1.0922668E-03
          23           2   1.004369      1.0922668E-03  1.0922668E-03
  1.0922668E-03  1.0922668E-03
          24           2   1.004369      1.0922668E-03  1.0922668E-03
  1.0922668E-03  1.0922668E-03
          25           2   1.004369      1.0922668E-03  1.0922668E-03
  1.0922668E-03  1.0922668E-03
          26           2   1.004369      1.0922668E-03  1.0922668E-03
  1.0922668E-03  1.0922668E-03
          27           2   1.004369      1.0922668E-03  1.0922668E-03
  1.0922668E-03  1.0922668E-03
          28           2   1.004369      1.0922668E-03  1.0922668E-03
  1.0922668E-03  1.0922668E-03
          29           2   1.004369      1.0922668E-03  1.0922668E-03
  1.0922668E-03  1.0922668E-03
          30           2   1.004369      1.0922668E-03  1.0922668E-03
  1.0922668E-03  1.0922668E-03
          31           2   1.004369      1.0922668E-03  1.0922668E-03
  1.0922668E-03  1.0922668E-03
          32           2   1.004369      1.0922668E-03  1.0922668E-03
  1.0922668E-03  1.0922668E-03
          33           2   1.004369      1.0922668E-03  1.0922668E-03
  1.0922668E-03  1.0922668E-03
          34           2   1.004369      1.0922668E-03  1.0922668E-03
  1.0922668E-03  1.0922668E-03
          35           2   1.004369      1.0922668E-03  1.0922668E-03
  1.0922668E-03  1.0922668E-03
          36           2   1.004369      1.0922668E-03  1.0922668E-03
  1.0922668E-03  1.0922668E-03
          37           2   1.004369      1.0922668E-03  1.0922668E-03
  1.0922668E-03  1.0922668E-03
          38           2   1.004369      1.0922668E-03  1.0922668E-03
  1.0922668E-03  1.0922668E-03
          39           2   1.004369      1.0922668E-03  1.0922668E-03
  1.0922668E-03  1.0922668E-03
          40           2   1.004369      1.0922668E-03  1.0922668E-03
  1.0922668E-03  1.0922668E-03
          41           2   1.004369      1.0922668E-03  1.0922668E-03
  1.0922668E-03  1.0922668E-03
          42           2   1.004369      1.0922668E-03  1.0922668E-03
  1.0922668E-03  1.0922668E-03
          43           2   1.004369      1.0922668E-03  1.0922668E-03
  1.0922668E-03  1.0922668E-03
          44           2   1.004369      1.0922668E-03  1.0922668E-03
  1.0922668E-03  1.0922668E-03
          45           2   1.004369      1.0922668E-03  1.0922668E-03
  1.0922668E-03  1.0922668E-03
          46           2   1.004369      1.0922668E-03  1.0922668E-03
  1.0922668E-03  1.0922668E-03
          47           2   1.004369      1.0922668E-03  1.0922668E-03
  1.0922668E-03  1.0922668E-03
          48           2   1.004369      1.0922668E-03  1.0922668E-03
  1.0922668E-03  1.0922668E-03
          49           2   1.004369      1.0922668E-03  1.0922668E-03
  1.0922668E-03  1.0922668E-03
          50           2   1.004369      1.0922668E-03  1.0922668E-03
  1.0922668E-03  1.0922668E-03
          51           2   1.004369      1.0922668E-03  1.0922668E-03
  1.0922668E-03  1.0922668E-03
          52           2   1.004369      1.0922668E-03  1.0922668E-03
  1.0922668E-03  1.0922668E-03
          53           2   1.004369      1.0922668E-03  1.0922668E-03
  1.0922668E-03  1.0922668E-03
          54           2   1.004369      1.0922668E-03  1.0922668E-03
  1.0922668E-03  1.0922668E-03
          55           2   1.004369      1.0922668E-03  1.0922668E-03
  1.0922668E-03  1.0922668E-03
          56           2   1.004369      1.0922668E-03  1.0922668E-03
  1.0922668E-03  1.0922668E-03
          57           2   1.004369      1.0922668E-03  1.0922668E-03
  1.0922668E-03  1.0922668E-03
          58           2   1.004369      1.0922668E-03  1.0922668E-03
  1.0922668E-03  1.0922668E-03
          59           2   1.004369      1.0922668E-03  1.0922668E-03
  1.0922668E-03  1.0922668E-03
          60           2   1.004369      1.0922668E-03  1.0922668E-03
  1.0922668E-03  1.0922668E-03
          61           2   1.004369      1.0922668E-03  1.0922668E-03
  1.0922668E-03  1.0922668E-03
          62           2   1.004369      1.0922668E-03  1.0922668E-03
  1.0922668E-03  1.0922668E-03
          63           2   1.004369      1.0922668E-03  1.0922668E-03
  1.0922668E-03  1.0922668E-03
          64           2   1.004369      1.0922668E-03  1.0922668E-03
  1.0922668E-03  1.0922668E-03
          65           2   1.004369      1.0922668E-03  1.0922668E-03
  1.0922668E-03  1.0922668E-03
          66           2   1.004369      1.0922668E-03  1.0922668E-03
  1.0922668E-03  1.0922668E-03
          67           2   1.004369      1.0922668E-03  1.0922668E-03
  1.0922668E-03  1.0922668E-03
          68           2   1.004369      1.0922668E-03  1.0922668E-03
  1.0922668E-03  1.0922668E-03
          69           2   1.004369      1.0922668E-03  1.0922668E-03
  1.0922668E-03  1.0922668E-03
          70           2   1.004369      1.0922668E-03  1.0922668E-03
  1.0922668E-03  1.0922668E-03
          71           2   1.004369      1.0922668E-03  1.0922668E-03
  1.0922668E-03  1.0922668E-03
          72           2   1.004369      1.0922668E-03  1.0922668E-03
  1.0922668E-03  1.0922668E-03
          73           2   1.004369      1.0922668E-03  1.0922668E-03
  1.0922668E-03  1.0922668E-03
          74           2   1.004369      1.0922668E-03  1.0922668E-03
  1.0922668E-03  1.0922668E-03
          75           2   1.004369      1.0922668E-03  1.0922668E-03
  1.0922668E-03  1.0922668E-03
          76           2   1.004369      1.0922668E-03  1.0922668E-03
  1.0922668E-03  1.0922668E-03
          77           2   1.004369      1.0922668E-03  1.0922668E-03
  1.0922668E-03  1.0922668E-03
          78           2   1.004369      1.0922668E-03  1.0922668E-03
  1.0922668E-03  1.0922668E-03
          79           2   1.004369      1.0922668E-03  1.0922668E-03
  1.0922668E-03  1.0922668E-03
          80           2   1.004369      1.0922668E-03  1.0922668E-03
  1.0922668E-03  1.0922668E-03
          81           2   1.004369      1.0922668E-03  1.0922668E-03
  1.0922668E-03  1.0922668E-03
          82           2   1.004369      1.0922668E-03  1.0922668E-03
  1.0922668E-03  1.0922668E-03
          83           2   1.004369      1.0922668E-03  1.0922668E-03
  1.0922668E-03  1.0922668E-03
          84           2   1.004369      1.0922668E-03  1.0922668E-03
  1.0922668E-03  1.0922668E-03
          85           2   1.004369      1.0922668E-03  1.0922668E-03
  1.0922668E-03  1.0922668E-03
          86           2   1.004369      1.0922668E-03  1.0922668E-03
  1.0922668E-03  1.0922668E-03
          87           2   1.004369      1.0922668E-03  1.0922668E-03
  1.0922668E-03  1.0922668E-03
          88           2   1.004369      1.0922668E-03  1.0922668E-03
  1.0922668E-03  1.0922668E-03
          89           2   1.004369      1.0922668E-03  1.0922668E-03
  1.0922668E-03  1.0922668E-03
          90           2   1.004369      1.0922668E-03  1.0922668E-03
  1.0922668E-03  1.0922668E-03
          91           2   1.004369      1.0922668E-03  1.0922668E-03
  1.0922668E-03  1.0922668E-03
          92           2   1.004369      1.0922668E-03  1.0922668E-03
  1.0922668E-03  1.0922668E-03
          93           2   1.004369      1.0922668E-03  1.0922668E-03
  1.0922668E-03  1.0922668E-03
          94           2   1.004369      1.0922668E-03  1.0922668E-03
  1.0922668E-03  1.0922668E-03
          95           2   1.004369      1.0922668E-03  1.0922668E-03
  1.0922668E-03  1.0922668E-03
          96           2   1.004369      1.0922668E-03  1.0922668E-03
  1.0922668E-03  1.0922668E-03
          97           2   1.004369      1.0922668E-03  1.0922668E-03
  1.0922668E-03  1.0922668E-03
          98           2   1.004369      1.0922668E-03  1.0922668E-03
  1.0922668E-03  1.0922668E-03
          99           2   1.004369      1.0922668E-03  1.0922668E-03
  1.0922668E-03  1.0922668E-03
         100           2   1.004369      1.0922668E-03  1.0922668E-03
  1.0922668E-03  1.0922668E-03
         101           2   1.004369      1.0922668E-03  1.0922668E-03
  1.0922668E-03  1.0922668E-03
         102           2   1.004369      1.0922668E-03  1.0922668E-03
  1.0922668E-03  1.0922668E-03
         103           2   1.004369      1.0922668E-03  1.0922668E-03
  1.0922668E-03  1.0922668E-03
         104           2   1.004369      1.0922668E-03  1.0922668E-03
  1.0922668E-03  1.0922668E-03
         105           2   1.004369      1.0922668E-03  1.0922668E-03
  1.0922668E-03  1.0922668E-03
         106           2   1.004369      1.0922668E-03  1.0922668E-03
  1.0922668E-03  1.0922668E-03
         107           2   1.004369      1.0922668E-03  1.0922668E-03
  1.0922668E-03  1.0922668E-03
         108           2   1.004369      1.0922668E-03  1.0922668E-03
  1.0922668E-03  1.0922668E-03
         109           2   1.004369      1.0922668E-03  1.0922668E-03
  1.0922668E-03  1.0922668E-03
         110           2   1.004369      1.0922668E-03  1.0922668E-03
  1.0922668E-03  1.0922668E-03
         111           2   1.004369      1.0922668E-03  1.0922668E-03
  1.0922668E-03  1.0922668E-03
         112           2   1.004369      1.0922668E-03  1.0922668E-03
  1.0922668E-03  1.0922668E-03
         113           2   1.004369      1.0922668E-03  1.0922668E-03
  1.0922668E-03  1.0922668E-03
         114           2   1.004369      1.0922668E-03  1.0922668E-03
  1.0922668E-03  1.0922668E-03
         115           2   1.004369      1.0922668E-03  1.0922668E-03
  1.0922668E-03  1.0922668E-03
         116           2   1.004369      1.0922668E-03  1.0922668E-03
  1.0922668E-03  1.0922668E-03
         117           2   1.004369      1.0922668E-03  1.0922668E-03
  1.0922668E-03  1.0922668E-03
         118           2   1.004369      1.0922668E-03  1.0922668E-03
  1.0922668E-03  1.0922668E-03
         119           2   1.004369      1.0922668E-03  1.0922668E-03
  1.0922668E-03  1.0922668E-03
         120           2   1.004369      1.0922668E-03  1.0922668E-03
  1.0922668E-03  1.0922668E-03
         121           2   1.004369      1.0922668E-03  1.0922668E-03
  1.0922668E-03  1.0922668E-03
         122           2   1.004369      1.0922668E-03  1.0922668E-03
  1.0922668E-03  1.0922668E-03
         123           2   1.004369      1.0922668E-03  1.0922668E-03
  1.0922668E-03  1.0922668E-03
         124           2   1.004369      1.0922668E-03  1.0922668E-03
  1.0922668E-03  1.0922668E-03
         125           2   1.004369      1.0922668E-03  1.0922668E-03
  1.0922668E-03  1.0922668E-03
         126           2   1.004369      1.0922668E-03  1.0922668E-03
  1.0922668E-03  1.0922668E-03
         127           2   1.004369      1.0922668E-03  1.0922668E-03
  1.0922668E-03  1.0922668E-03
         128           2   1.004369      1.0922668E-03  1.0922668E-03
  1.0922668E-03  1.0922668E-03
         129           2   1.004369      1.0922668E-03  1.0922668E-03
  1.0922668E-03  1.0922668E-03
         130           2   1.000000       1.000000       1.000000    
   1.000000       1.000000    
           1           3   1.000000       1.000000       1.000000    
   1.000000       1.000000    
           2           3   1.004369      1.0922668E-03  1.0922668E-03
  1.0922668E-03  1.0922668E-03
           3           3   1.004369      1.0922668E-03  1.0922668E-03
  1.0922668E-03  1.0922668E-03
           4           3   1.004369      1.0922668E-03  1.0922668E-03
  1.0922668E-03  1.0922668E-03
           5           3   1.004369      1.0922668E-03  1.0922668E-03
  1.0922668E-03  1.0922668E-03
           6           3   1.004369      1.0922668E-03  1.0922668E-03
  1.0922668E-03  1.0922668E-03
           7           3   1.004369      1.0922668E-03  1.0922668E-03
  1.0922668E-03  1.0922668E-03
           8           3   1.004369      1.0922668E-03  1.0922668E-03
  1.0922668E-03  1.0922668E-03
           9           3   1.004369      1.0922668E-03  1.0922668E-03
  1.0922668E-03  1.0922668E-03
          10           3   1.004369      1.0922668E-03  1.0922668E-03
  1.0922668E-03  1.0922668E-03
          11           3   1.004369      1.0922668E-03  1.0922668E-03
  1.0922668E-03  1.0922668E-03
          12           3   1.004369      1.0922668E-03  1.0922668E-03
  1.0922668E-03  1.0922668E-03
          13           3   1.004369      1.0922668E-03  1.0922668E-03
  1.0922668E-03  1.0922668E-03
          14           3   1.004369      1.0922668E-03  1.0922668E-03
  1.0922668E-03  1.0922668E-03
          15           3   1.004369      1.0922668E-03  1.0922668E-03
  1.0922668E-03  1.0922668E-03
          16           3   1.004369      1.0922668E-03  1.0922668E-03
  1.0922668E-03  1.0922668E-03
          17           3   1.004369      1.0922668E-03  1.0922668E-03
  1.0922668E-03  1.0922668E-03
          18           3   1.004369      1.0922668E-03  1.0922668E-03
  1.0922668E-03  1.0922668E-03
          19           3   1.004369      1.0922668E-03  1.0922668E-03
  1.0922668E-03  1.0922668E-03
          20           3   1.004369      1.0922668E-03  1.0922668E-03
  1.0922668E-03  1.0922668E-03
          21           3   1.004369      1.0922668E-03  1.0922668E-03
  1.0922668E-03  1.0922668E-03
          22           3   1.004369      1.0922668E-03  1.0922668E-03
  1.0922668E-03  1.0922668E-03
          23           3   1.004369      1.0922668E-03  1.0922668E-03
  1.0922668E-03  1.0922668E-03
          24           3   1.004369      1.0922668E-03  1.0922668E-03
  1.0922668E-03  1.0922668E-03
          25           3   1.004369      1.0922668E-03  1.0922668E-03
  1.0922668E-03  1.0922668E-03
          26           3   1.004369      1.0922668E-03  1.0922668E-03
  1.0922668E-03  1.0922668E-03
          27           3   1.004369      1.0922668E-03  1.0922668E-03
  1.0922668E-03  1.0922668E-03
          28           3   1.004369      1.0922668E-03  1.0922668E-03
  1.0922668E-03  1.0922668E-03
          29           3   1.004369      1.0922668E-03  1.0922668E-03
  1.0922668E-03  1.0922668E-03
          30           3   1.004369      1.0922668E-03  1.0922668E-03
  1.0922668E-03  1.0922668E-03
          31           3   1.004369      1.0922668E-03  1.0922668E-03
  1.0922668E-03  1.0922668E-03
          32           3   1.004369      1.0922668E-03  1.0922668E-03
  1.0922668E-03  1.0922668E-03
          33           3   1.004369      1.0922668E-03  1.0922668E-03
  1.0922668E-03  1.0922668E-03
          34           3   1.004369      1.0922668E-03  1.0922668E-03
  1.0922668E-03  1.0922668E-03
          35           3   1.004369      1.0922668E-03  1.0922668E-03
  1.0922668E-03  1.0922668E-03