 TITLE = "Post Processing Tecplot"
 VARIABLES = "X", "Y", "vf"
 ZONE T="BIG ZONE", I=         128 , J=         130 , DATAPACKING=POINT
           1           1   0.00000000    
           2           1   0.00000000    
           3           1   0.00000000    
           4           1   0.00000000    
           5           1   0.00000000    
           6           1   0.00000000    
           7           1   0.00000000    
           8           1   0.00000000    
           9           1   0.00000000    
          10           1   0.00000000    
          11           1   0.00000000    
          12           1   0.00000000    
          13           1   0.00000000    
          14           1   0.00000000    
          15           1   0.00000000    
          16           1   0.00000000    
          17           1   0.00000000    
          18           1   0.00000000    
          19           1   0.00000000    
          20           1   0.00000000    
          21           1   0.00000000    
          22           1   0.00000000    
          23           1   0.00000000    
          24           1   0.00000000    
          25           1   0.00000000    
          26           1   0.00000000    
          27           1   0.00000000    
          28           1   0.00000000    
          29           1   0.00000000    
          30           1   0.00000000    
          31           1   0.00000000    
          32           1   0.00000000    
          33           1   0.00000000    
          34           1   0.00000000    
          35           1   0.00000000    
          36           1   0.00000000    
          37           1   0.00000000    
          38           1   0.00000000    
          39           1   0.00000000    
          40           1   0.00000000    
          41           1   0.00000000    
          42           1   0.00000000    
          43           1   0.00000000    
          44           1   0.00000000    
          45           1   0.00000000    
          46           1   0.00000000    
          47           1   0.00000000    
          48           1   0.00000000    
          49           1   0.00000000    
          50           1   0.00000000    
          51           1   0.00000000    
          52           1   0.00000000    
          53           1   0.00000000    
          54           1   0.00000000    
          55           1   0.00000000    
          56           1   0.00000000    
          57           1   0.00000000    
          58           1   0.00000000    
          59           1   0.00000000    
          60           1   0.00000000    
          61           1   0.00000000    
          62           1   0.00000000    
          63           1   0.00000000    
          64           1   0.00000000    
          65           1   0.00000000    
          66           1   0.00000000    
          67           1   0.00000000    
          68           1   0.00000000    
          69           1   0.00000000    
          70           1   0.00000000    
          71           1   0.00000000    
          72           1   0.00000000    
          73           1   0.00000000    
          74           1   0.00000000    
          75           1   0.00000000    
          76           1   0.00000000    
          77           1   0.00000000    
          78           1   0.00000000    
          79           1   0.00000000    
          80           1   0.00000000    
          81           1   0.00000000    
          82           1   0.00000000    
          83           1   0.00000000    
          84           1   0.00000000    
          85           1   0.00000000    
          86           1   0.00000000    
          87           1   0.00000000    
          88           1   0.00000000    
          89           1   0.00000000    
          90           1   0.00000000    
          91           1   0.00000000    
          92           1   0.00000000    
          93           1   0.00000000    
          94           1   0.00000000    
          95           1   0.00000000    
          96           1   0.00000000    
          97           1   0.00000000    
          98           1   0.00000000    
          99           1   0.00000000    
         100           1   0.00000000    
         101           1   0.00000000    
         102           1   0.00000000    
         103           1   0.00000000    
         104           1   0.00000000    
         105           1   0.00000000    
         106           1   0.00000000    
         107           1   0.00000000    
         108           1   0.00000000    
         109           1   0.00000000    
         110           1   0.00000000    
         111           1   0.00000000    
         112           1   0.00000000    
         113           1   0.00000000    
         114           1   0.00000000    
         115           1   0.00000000    
         116           1   0.00000000    
         117           1   0.00000000    
         118           1   0.00000000    
         119           1   0.00000000    
         120           1   0.00000000    
         121           1   0.00000000    
         122           1   0.00000000    
         123           1   0.00000000    
         124           1   0.00000000    
         125           1   0.00000000    
         126           1   0.00000000    
         127           1   0.00000000    
         128           1   0.00000000    
           1           2  -3.95176312E-06
           2           2  -1.16030978E-05
           3           2  -1.42128920E-05
           4           2  -1.32695232E-05
           5           2  -1.00153056E-05
           6           2  -5.37240885E-06
           7           2   4.80707207E-08
           8           2   5.84975987E-06
           9           2   1.17761465E-05
          10           2   1.76593257E-05
          11           2   2.33891788E-05
          12           2   2.88933479E-05
          13           2   3.41254090E-05
          14           2   3.90565583E-05
          15           2   4.36706177E-05
          16           2   4.79604569E-05
          17           2   5.19254136E-05
          18           2   5.55699517E-05
          19           2   5.89014198E-05
          20           2   6.19297571E-05
          21           2   6.46663539E-05
          22           2   6.71234593E-05
          23           2   6.93138281E-05
          24           2   7.12503388E-05
          25           2   7.29454041E-05
          26           2   7.44114514E-05
          27           2   7.56598238E-05
          28           2   7.67011952E-05
          29           2   7.75453445E-05
          30           2   7.82012285E-05
          31           2   7.86771488E-05
          32           2   7.89795522E-05
          33           2   7.91142302E-05
          34           2   7.90871491E-05
          35           2   7.89020341E-05
          36           2   7.85615775E-05
          37           2   7.80681003E-05
          38           2   7.74235232E-05
          39           2   7.66289668E-05
          40           2   7.56846639E-05
          41           2   7.45901270E-05
          42           2   7.33447596E-05
          43           2   7.19473101E-05
          44           2   7.03963087E-05
          45           2   6.86910862E-05
          46           2   6.68299763E-05
          47           2   6.48108544E-05
          48           2   6.26325418E-05
          49           2   6.02934779E-05
          50           2   5.77941028E-05
          51           2   5.51324774E-05
          52           2   5.23083982E-05
          53           2   4.93226507E-05
          54           2   4.61756063E-05
          55           2   4.28684361E-05
          56           2   3.94048147E-05
          57           2   3.57869540E-05
          58           2   3.20189647E-05
          59           2   2.81061693E-05
          60           2   2.40534137E-05
          61           2   1.98681719E-05
          62           2   1.55584457E-05
          63           2   1.11322879E-05
          64           2   6.59908028E-06
          65           2   1.97067402E-06
          66           2  -2.74049808E-06
          67           2  -7.52212645E-06
          68           2  -1.23604423E-05
          69           2  -1.72398686E-05
          70           2  -2.21447699E-05
          71           2  -2.70589717E-05
          72           2  -3.19640239E-05
          73           2  -3.68410401E-05
          74           2  -4.16712646E-05
          75           2  -4.64347831E-05
          76           2  -5.11103826E-05
          77           2  -5.56792220E-05
          78           2  -6.01191350E-05
          79           2  -6.44082975E-05
          80           2  -6.85267805E-05
          81           2  -7.24531201E-05
          82           2  -7.61661358E-05
          83           2  -7.96458262E-05
          84           2  -8.28725606E-05
          85           2  -8.58268759E-05
          86           2  -8.84901165E-05
          87           2  -9.08459624E-05
          88           2  -9.28781228E-05
          89           2  -9.45720021E-05
          90           2  -9.59141835E-05
          91           2  -9.68933164E-05
          92           2  -9.74995855E-05
          93           2  -9.77248201E-05
          94           2  -9.75632429E-05
          95           2  -9.70103792E-05
          96           2  -9.60647521E-05
          97           2  -9.47264780E-05
          98           2  -9.29979069E-05
          99           2  -9.08837828E-05
         100           2  -8.83912144E-05
         101           2  -8.55292383E-05
         102           2  -8.23093796E-05
         103           2  -7.87454410E-05
         104           2  -7.48532038E-05
         105           2  -7.06508799E-05
         106           2  -6.61587983E-05
         107           2  -6.13994707E-05
         108           2  -5.63977046E-05
         109           2  -5.11805047E-05
         110           2  -4.57774586E-05
         111           2  -4.02207188E-05
         112           2  -3.45455919E-05
         113           2  -2.87908642E-05
         114           2  -2.29994785E-05
         115           2  -1.72197033E-05
         116           2  -1.15065504E-05
         117           2  -5.92405013E-06
         118           2  -5.48061621E-07
         119           2   4.52909262E-06
         120           2   9.19180911E-06
         121           2   1.32917557E-05
         122           2   1.66328555E-05
         123           2   1.89506336E-05
         124           2   1.98860162E-05
         125           2   1.89628026E-05
         126           2   1.56071692E-05
         127           2   9.39826350E-06
         128           2   5.30975342E-07
           1           3  -1.55672988E-05
           2           3  -3.31723859E-05
           3           3  -3.81455320E-05
           4           3  -3.34357937E-05
           5           3  -2.19053236E-05
           6           3  -5.86851911E-06
           7           3   1.29600730E-05
           8           3   3.33517455E-05
           9           3   5.44368559E-05
          10           3   7.56035806E-05
          11           3   9.64225110E-05
          12           3   1.16594383E-04
          13           3   1.35913826E-04
          14           3   1.54243840E-04
          15           3   1.71497391E-04
          16           3   1.87624959E-04
          17           3   2.02604206E-04
          18           3   2.16433808E-04
          19           3   2.29127269E-04
          20           3   2.40708643E-04
          21           3   2.51209975E-04
          22           3   2.60668807E-04
          23           3   2.69124808E-04
          24           3   2.76619598E-04
          25           3   2.83195230E-04
          26           3   2.88892508E-04
          27           3   2.93750811E-04
          28           3   2.97807332E-04
          29           3   3.01096210E-04
          30           3   3.03650275E-04
          31           3   3.05497088E-04
          32           3   3.06661619E-04
          33           3   3.07165756E-04
          34           3   3.07028415E-04
          35           3   3.06264119E-04
          36           3   3.04885441E-04
          37           3   3.02902947E-04
          38           3   3.00321117E-04
          39           3   2.97146122E-04
          40           3   2.93378980E-04
          41           3   2.89019023E-04
          42           3   2.84065813E-04
          43           3   2.78516498E-04
          44           3   2.72367848E-04
          45           3   2.65615992E-04
          46           3   2.58256710E-04
          47           3   2.50286510E-04
          48           3   2.41698857E-04
          49           3   2.32492763E-04
          50           3   2.22666014E-04
          51           3   2.12218467E-04
          52           3   2.01150178E-04
          53           3   1.89463724E-04
          54           3   1.77164169E-04
          55           3   1.64260317E-04
          56           3   1.50762135E-04
          57           3   1.36683360E-04
          58           3   1.22039804E-04
          59           3   1.06851141E-04
          60           3   9.11421812E-05
          61           3   7.49392129E-05
          62           3   5.82733737E-05
          63           3   4.11783149E-05
          64           3   2.36912983E-05
          65           3   5.85651060E-06
          66           3  -1.22792380E-05
          67           3  -3.06670008E-05
          68           3  -4.92536856E-05
          69           3  -6.79813384E-05
          70           3  -8.67897979E-05
          71           3  -1.05614548E-04
          72           3  -1.24388112E-04
          73           3  -1.43040175E-04
          74           3  -1.61499542E-04
          75           3  -1.79690047E-04
          76           3  -1.97536050E-04
          77           3  -2.14959597E-04
          78           3  -2.31881684E-04
          79           3  -2.48223165E-04
          80           3  -2.63905124E-04
          81           3  -2.78848805E-04
          82           3  -2.92976707E-04
          83           3  -3.06213537E-04
          84           3  -3.18484439E-04
          85           3  -3.29718372E-04
          86           3  -3.39848280E-04
          87           3  -3.48811154E-04
          88           3  -3.56546778E-04
          89           3  -3.63001251E-04
          90           3  -3.68125329E-04
          91           3  -3.71877191E-04
          92           3  -3.74221097E-04
          93           3  -3.75127158E-04
          94           3  -3.74573021E-04
          95           3  -3.72544804E-04
          96           3  -3.69035522E-04
          97           3  -3.64047824E-04
          98           3  -3.57590849E-04
          99           3  -3.49682930E-04
         100           3  -3.40351573E-04
         101           3  -3.29631963E-04
         102           3  -3.17568716E-04
         103           3  -3.04214336E-04
         104           3  -2.89629912E-04
         105           3  -2.73885700E-04
         106           3  -2.57060427E-04
         107           3  -2.39241228E-04
         108           3  -2.20524293E-04
         109           3  -2.01015369E-04
         110           3  -1.80829898E-04
         111           3  -1.60094089E-04
         112           3  -1.38946649E-04
         113           3  -1.17539981E-04
         114           3  -9.60433463E-05
         115           3  -7.46462829E-05
         116           3  -5.35637992E-05
         117           3  -3.30434268E-05
         118           3  -1.33745498E-05
         119           3   5.09814799E-06
         120           3   2.19572121E-05
         121           3   3.66882923E-05
         122           3   4.86506106E-05
         123           3   5.70415723E-05
         124           3   6.08681403E-05
         125           3   5.89558658E-05
         126           3   5.00807910E-05
         127           3   3.34886572E-05
         128           3   9.89787532E-06
           1           4  -2.98496707E-05
           2           4  -5.71866185E-05
           3           4  -6.20965147E-05
           4           4  -4.97677065E-05
           5           4  -2.49493005E-05
           6           4   8.47649153E-06
           7           4   4.74965309E-05
           8           4   8.98388025E-05
           9           4   1.33817011E-04
          10           4   1.78191753E-04
          11           4   2.22058894E-04
          12           4   2.64766335E-04
          13           4   3.05849680E-04
          14           4   3.44986707E-04
          15           4   3.81961465E-04
          16           4   4.16640163E-04
          17           4   4.48950275E-04
          18           4   4.78865550E-04
          19           4   5.06395067E-04
          20           4   5.31573314E-04
          21           4   5.54453989E-04
          22           4   5.75103972E-04
          23           4   5.93598117E-04
          24           4   6.10015413E-04
          25           4   6.24437933E-04
          26           4   6.36946934E-04
          27           4   6.47620938E-04
          28           4   6.56535616E-04
          29           4   6.63761282E-04
          30           4   6.69363304E-04
          31           4   6.73399656E-04
          32           4   6.75923016E-04
          33           4   6.76978612E-04
          34           4   6.76605967E-04
          35           4   6.74837211E-04
          36           4   6.71699177E-04
          37           4   6.67212356E-04
          38           4   6.61392347E-04
          39           4   6.54249277E-04
          40           4   6.45787863E-04
          41           4   6.36008859E-04
          42           4   6.24912500E-04
          43           4   6.12495118E-04
          44           4   5.98750601E-04
          45           4   5.83673595E-04
          46           4   5.67255949E-04
          47           4   5.49492601E-04
          48           4   5.30375866E-04
          49           4   5.09900739E-04
          50           4   4.88067220E-04
          51           4   4.64876910E-04
          52           4   4.40332748E-04
          53           4   4.14444425E-04
          54           4   3.87224602E-04
          55           4   3.58694611E-04
          56           4   3.28879454E-04
          57           4   2.97811028E-04
          58           4   2.65525799E-04
          59           4   2.32068487E-04
          60           4   1.97493544E-04
          61           4   1.61862888E-04
          62           4   1.25244100E-04
          63           4   8.77119674E-05
          64           4   4.93521002E-05
          65           4   1.02567246E-05
          66           4  -2.94700021E-05
          67           4  -6.97202559E-05
          68           4  -1.10376212E-04
          69           4  -1.51315617E-04
          70           4  -1.92406515E-04
          71           4  -2.33506769E-04
          72           4  -2.74471240E-04
          73           4  -3.15150712E-04
          74           4  -3.55387427E-04
          75           4  -3.95019830E-04
          76           4  -4.33884212E-04
          77           4  -4.71812877E-04
          78           4  -5.08637517E-04
          79           4  -5.44185925E-04
          80           4  -5.78291249E-04
          81           4  -6.10782125E-04
          82           4  -6.41493825E-04
          83           4  -6.70264126E-04
          84           4  -6.96933130E-04
          85           4  -7.21353223E-04
          86           4  -7.43378769E-04
          87           4  -7.62870885E-04
          88           4  -7.79706810E-04
          89           4  -7.93769432E-04
          90           4  -8.04954965E-04
          91           4  -8.13173596E-04
          92           4  -8.18348839E-04
          93           4  -8.20418820E-04
          94           4  -8.19336448E-04
          95           4  -8.15072213E-04
          96           4  -8.07613076E-04
          97           4  -7.96963635E-04
          98           4  -7.83145835E-04
          99           4  -7.66201352E-04
         100           4  -7.46188860E-04
         101           4  -7.23186182E-04
         102           4  -6.97290350E-04
         103           4  -6.68616151E-04
         104           4  -6.37298217E-04
         105           4  -6.03489985E-04
         106           4  -5.67363459E-04
         107           4  -5.29110373E-04
         108           4  -4.88942140E-04
         109           4  -4.47091006E-04
         110           4  -4.03811660E-04
         111           4  -3.59382480E-04
         112           4  -3.14108795E-04
         113           4  -2.68326636E-04
         114           4  -2.22407878E-04
         115           4  -1.76767760E-04
         116           4  -1.31874069E-04
         117           4  -8.82603563E-05
         118           4  -4.65428602E-05
         119           4  -7.44224371E-06
         120           4   2.81881221E-05
         121           4   5.93276054E-05
         122           4   8.47495903E-05
         123           4   1.02984937E-04
         124           4   1.12305650E-04
         125           4   1.10773857E-04
         126           4   9.64466599E-05
         127           4   6.79480872E-05
         128           4   2.54314036E-05
           1           5  -4.32763081E-05
           2           5  -7.75427325E-05
           3           5  -7.85204902E-05
           4           5  -5.39995344E-05
           5           5  -1.07613159E-05
           6           5   4.56791386E-05
           7           5   1.10947949E-04
           8           5   1.81646858E-04
           9           5   2.55173276E-04
          10           5   3.29555012E-04
          11           5   4.03313286E-04
          12           5   4.75350709E-04
          13           5   5.44865674E-04
          14           5   6.11284690E-04
          15           5   6.74211071E-04
          16           5   7.33384397E-04
          17           5   7.88650883E-04
          18           5   8.39937013E-04
          19           5   8.87231552E-04
          20           5   9.30570764E-04
          21           5   9.70024150E-04
          22           5   1.00568705E-03
          23           5   1.03767100E-03
          24           5   1.06609787E-03
          25           5   1.09109457E-03
          26           5   1.11278938E-03
          27           5   1.13130827E-03
          28           5   1.14677195E-03
          29           5   1.15929649E-03
          30           5   1.16898620E-03
          31           5   1.17593782E-03
          32           5   1.18023739E-03
          33           5   1.18196127E-03
          34           5   1.18117535E-03
          35           5   1.17793435E-03
          36           5   1.17228297E-03
          37           5   1.16425694E-03
          38           5   1.15388364E-03
          39           5   1.14118168E-03
          40           5   1.12616050E-03
          41           5   1.10882544E-03
          42           5   1.08917872E-03
          43           5   1.06721651E-03
          44           5   1.04292913E-03
          45           5   1.01631181E-03
          46           5   9.87356412E-04
          47           5   9.56052158E-04
          48           5   9.22393461E-04
          49           5   8.86374852E-04
          50           5   8.48000462E-04
          51           5   8.07274948E-04
          52           5   7.64211698E-04
          53           5   7.18826195E-04
          54           5   6.71148067E-04
          55           5   6.21216430E-04
          56           5   5.69076801E-04
          57           5   5.14787214E-04
          58           5   4.58414841E-04
          59           5   4.00042656E-04
          60           5   3.39765858E-04
          61           5   2.77692685E-04
          62           5   2.13942811E-04
          63           5   1.48648745E-04
          64           5   8.19592969E-05
          65           5   1.40370803E-05
          66           5  -5.49445685E-05
          67           5  -1.24791870E-04
          68           5  -1.95303743E-04
          69           5  -2.66264193E-04
          70           5  -3.37448699E-04
          71           5  -4.08617023E-04
          72           5  -4.79514478E-04
          73           5  -5.49888064E-04
          74           5  -6.19464496E-04
          75           5  -6.87971013E-04
          76           5  -7.55126064E-04
          77           5  -8.20641872E-04
          78           5  -8.84229841E-04
          79           5  -9.45601147E-04
          80           5  -1.00446667E-03
          81           5  -1.06053951E-03
          82           5  -1.11353758E-03
          83           5  -1.16318150E-03
          84           5  -1.20920362E-03
          85           5  -1.25135051E-03
          86           5  -1.28937524E-03
          87           5  -1.32304465E-03
          88           5  -1.35214790E-03
          89           5  -1.37648708E-03
          90           5  -1.39588746E-03
          91           5  -1.41019619E-03
          92           5  -1.41928473E-03
          93           5  -1.42304692E-03
          94           5  -1.42140442E-03
          95           5  -1.41430937E-03
          96           5  -1.40174082E-03
          97           5  -1.38370588E-03
          98           5  -1.36024540E-03
          99           5  -1.33143098E-03
         100           5  -1.29736529E-03
         101           5  -1.25818246E-03
         102           5  -1.21405080E-03
         103           5  -1.16516906E-03
         104           5  -1.11177028E-03
         105           5  -1.05411978E-03
         106           5  -9.92516289E-04
         107           5  -9.27292334E-04
         108           5  -8.58815620E-04
         109           5  -7.87488942E-04
         110           5  -7.13755027E-04
         111           5  -6.38097408E-04
         112           5  -5.61046123E-04
         113           5  -4.83183656E-04
         114           5  -4.05152328E-04
         115           5  -3.27666145E-04
         116           5  -2.51524238E-04
         117           5  -1.77629627E-04
         118           5  -1.07012638E-04
         119           5  -4.08601591E-05
         120           5   1.94489858E-05
         121           5   7.23037811E-05
         122           5   1.15819072E-04
         123           5   1.47801969E-04
         124           5   1.65747566E-04
         125           5   1.66902988E-04
         126           5   1.48467283E-04
         127           5   1.08042717E-04
         128           5   4.43191202E-05
           1           6  -5.35359759E-05
           2           6  -8.96852143E-05
           3           6  -8.16431784E-05
           4           6  -3.97354015E-05
           5           6   2.72470734E-05
           6           6   1.12175141E-04
           7           6   2.09323567E-04
           8           6   3.14157107E-04
           9           6   4.23124147E-04
          10           6   5.33472863E-04
          11           6   6.43093139E-04
          12           6   7.50385458E-04
          13           6   8.54155514E-04
          14           6   9.53529438E-04
          15           6   1.04788586E-03
          16           6   1.13680330E-03
          17           6   1.22001604E-03
          18           6   1.29738112E-03
          19           6   1.36884942E-03
          20           6   1.43444631E-03
          21           6   1.49424945E-03
          22           6   1.54837721E-03
          23           6   1.59697642E-03
          24           6   1.64021167E-03
          25           6   1.67825667E-03
          26           6   1.71129080E-03
          27           6   1.73949113E-03
          28           6   1.76302879E-03
          29           6   1.78206852E-03
          30           6   1.79676164E-03
          31           6   1.80724729E-03
          32           6   1.81365141E-03
          33           6   1.81608694E-03
          34           6   1.81464781E-03
          35           6   1.80941680E-03
          36           6   1.80046016E-03
          37           6   1.78783131E-03
          38           6   1.77157472E-03
          39           6   1.75171730E-03
          40           6   1.72827882E-03
          41           6   1.70127105E-03
          42           6   1.67069468E-03
          43           6   1.63654576E-03
          44           6   1.59882312E-03
          45           6   1.55751850E-03
          46           6   1.51262246E-03
          47           6   1.46412686E-03
          48           6   1.41202437E-03
          49           6   1.35631731E-03
          50           6   1.29701104E-03
          51           6   1.23412139E-03
          52           6   1.16767327E-03
          53           6   1.09769974E-03
          54           6   1.02424598E-03
          55           6   9.47375956E-04
          56           6   8.67166440E-04
          57           6   7.83709052E-04
          58           6   6.97113166E-04
          59           6   6.07507827E-04
          60           6   5.15040010E-04
          61           6   4.19877877E-04
          62           6   3.22209642E-04
          63           6   2.22238392E-04
          64           6   1.20190656E-04
          65           6   1.63163113E-05
          66           6  -8.91164746E-05
          67           6  -1.95816800E-04
          68           6  -3.03476671E-04
          69           6  -4.11770743E-04
          70           6  -5.20350353E-04
          71           6  -6.28854614E-04