 TITLE = "Post Processing Tecplot"
 VARIABLES = "X", "Y", "u", "v","Velocity Magnitude", "P", "Vorticity"
 ZONE T="BIG ZONE", I=         130 , J=         130 , DATAPACKING=POINT
  -7.69230770E-03  -7.69230770E-03   1.12560235E-06  -1.32740308E-06   1.74039644E-06  -1.29942708E-02   0.00000000    
   0.00000000      -7.69230770E-03  -1.12560235E-06   1.32740308E-06   1.74039644E-06  -1.29942708E-02   0.00000000    
   7.69230770E-03  -7.69230770E-03  -7.84014537E-06   4.16735838E-06   8.87889382E-06  -1.29867392E-02   0.00000000    
   1.53846154E-02  -7.69230770E-03  -1.98452071E-05   5.17339367E-06   2.05084434E-05  -1.29990280E-02   0.00000000    
   2.30769236E-02  -7.69230770E-03  -3.18977873E-05   4.92483423E-06   3.22757296E-05  -1.30329272E-02   0.00000000    
   3.07692308E-02  -7.69230770E-03  -4.16002113E-05   3.92573111E-06   4.17850315E-05  -1.30876983E-02   0.00000000    
   3.84615399E-02  -7.69230770E-03  -4.74341396E-05   2.52795667E-06   4.75014531E-05  -1.31607642E-02   0.00000000    
   4.61538471E-02  -7.69230770E-03  -4.85512719E-05   9.42948873E-07   4.85604287E-05  -1.32489726E-02   0.00000000    
   5.38461544E-02  -7.69230770E-03  -4.45243386E-05  -7.06593198E-07   4.45299447E-05  -1.33491373E-02   0.00000000    
   6.15384616E-02  -7.69230770E-03  -3.51935487E-05  -2.35026300E-06   3.52719362E-05  -1.34582743E-02   0.00000000    
   6.92307726E-02  -7.69230770E-03  -2.05703036E-05  -3.94742710E-06   2.09456339E-05  -1.35736912E-02   0.00000000    
   7.69230798E-02  -7.69230770E-03  -7.76257593E-07  -5.47489208E-06   5.52964912E-06  -1.36930011E-02   0.00000000    
   8.46153870E-02  -7.69230770E-03   2.39949204E-05  -6.91940204E-06   2.49726709E-05  -1.38141112E-02   0.00000000    
   9.23076943E-02  -7.69230770E-03   5.35045256E-05  -8.27391159E-06   5.41404843E-05  -1.39352065E-02   0.00000000    
  0.100000001      -7.69230770E-03   8.74862380E-05  -9.53540712E-06   8.80043517E-05  -1.40547100E-02   0.00000000    
  0.107692309      -7.69230770E-03   1.25657098E-04  -1.07033038E-05   1.26112122E-04  -1.41712641E-02   0.00000000    
  0.115384616      -7.69230770E-03   1.67727179E-04  -1.17789668E-05   1.68140265E-04  -1.42837074E-02   0.00000000    
  0.123076923      -7.69230770E-03   2.13405772E-04  -1.27646617E-05   2.13787192E-04  -1.43910442E-02   0.00000000    
  0.130769238      -7.69230770E-03   2.62405083E-04  -1.36635181E-05   2.62760557E-04  -1.44924289E-02   0.00000000    
  0.138461545      -7.69230770E-03   3.14443809E-04  -1.44791657E-05   3.14776989E-04  -1.45871453E-02   0.00000000    
  0.146153852      -7.69230770E-03   3.69248999E-04  -1.52153707E-05   3.69562360E-04  -1.46745900E-02   0.00000000    
  0.153846160      -7.69230770E-03   4.26557526E-04  -1.58762632E-05   4.26852872E-04  -1.47542590E-02   0.00000000    
  0.161538467      -7.69230770E-03   4.86116973E-04  -1.64657067E-05   4.86395758E-04  -1.48257343E-02   0.00000000    
  0.169230774      -7.69230770E-03   5.47686475E-04  -1.69878076E-05   5.47949865E-04  -1.48886703E-02   0.00000000    
  0.176923081      -7.69230770E-03   6.11036201E-04  -1.74463821E-05   6.11285213E-04  -1.49427848E-02   0.00000000    
  0.184615389      -7.69230770E-03   6.75947755E-04  -1.78450518E-05   6.76183263E-04  -1.49878468E-02   0.00000000    
  0.192307696      -7.69230770E-03   7.42213277E-04  -1.81873656E-05   7.42436096E-04  -1.50236739E-02   0.00000000    
  0.200000003      -7.69230770E-03   8.09635385E-04  -1.84764031E-05   8.09846155E-04  -1.50501197E-02   0.00000000    
  0.207692310      -7.69230770E-03   8.78026360E-04  -1.87153273E-05   8.78225779E-04  -1.50670698E-02   0.00000000    
  0.215384617      -7.69230770E-03   9.47207387E-04  -1.89067268E-05   9.47396038E-04  -1.50744384E-02   0.00000000    
  0.223076925      -7.69230770E-03   1.01700844E-03  -1.90531064E-05   1.01718691E-03  -1.50721604E-02   0.00000000    
  0.230769232      -7.69230770E-03   1.08726625E-03  -1.91563886E-05   1.08743506E-03  -1.50601873E-02   0.00000000    
  0.238461539      -7.69230770E-03   1.15782442E-03  -1.92186599E-05   1.15798390E-03  -1.50384875E-02   0.00000000    
  0.246153846      -7.69230770E-03   1.22853310E-03  -1.92414318E-05   1.22868374E-03  -1.50070423E-02   0.00000000    
  0.253846169      -7.69230770E-03   1.29924633E-03  -1.92261505E-05   1.29938859E-03  -1.49658415E-02   0.00000000    
  0.261538476      -7.69230770E-03   1.36982300E-03  -1.91739509E-05   1.36995723E-03  -1.49148842E-02   0.00000000    
  0.269230783      -7.69230770E-03   1.44012552E-03  -1.90856772E-05   1.44025194E-03  -1.48541750E-02   0.00000000    
  0.276923090      -7.69230770E-03   1.51001883E-03  -1.89618513E-05   1.51013781E-03  -1.47837279E-02   0.00000000    
  0.284615397      -7.69230770E-03   1.57937012E-03  -1.88030135E-05   1.57948199E-03  -1.47035625E-02   0.00000000    
  0.292307705      -7.69230770E-03   1.64804794E-03  -1.86093439E-05   1.64815295E-03  -1.46137038E-02   0.00000000    
  0.300000012      -7.69230770E-03   1.71592133E-03  -1.83809534E-05   1.71601982E-03  -1.45141864E-02   0.00000000    
  0.307692319      -7.69230770E-03   1.78286002E-03  -1.81179093E-05   1.78295211E-03  -1.44050522E-02   0.00000000    
  0.315384626      -7.69230770E-03   1.84873422E-03  -1.78199516E-05   1.84882013E-03  -1.42863523E-02   0.00000000    
  0.323076934      -7.69230770E-03   1.91341329E-03  -1.74870256E-05   1.91349327E-03  -1.41581455E-02   0.00000000    
  0.330769241      -7.69230770E-03   1.97676616E-03  -1.71186530E-05   1.97684020E-03  -1.40205026E-02   0.00000000    
  0.338461548      -7.69230770E-03   2.03866069E-03  -1.67141206E-05   2.03872914E-03  -1.38735054E-02   0.00000000    
  0.346153855      -7.69230770E-03   2.09896313E-03  -1.62732958E-05   2.09902623E-03  -1.37172528E-02   0.00000000    
  0.353846163      -7.69230770E-03   2.15753913E-03  -1.57954983E-05   2.15759687E-03  -1.35518583E-02   0.00000000    
  0.361538470      -7.69230770E-03   2.21425248E-03  -1.52806297E-05   2.21430534E-03  -1.33774532E-02   0.00000000    
  0.369230777      -7.69230770E-03   2.26896815E-03  -1.47281835E-05   2.26901588E-03  -1.31941913E-02   0.00000000    
  0.376923084      -7.69230770E-03   2.32154806E-03  -1.41376013E-05   2.32159114E-03  -1.30022438E-02   0.00000000    
  0.384615391      -7.69230770E-03   2.37185392E-03  -1.35082564E-05   2.37189233E-03  -1.28018009E-02   0.00000000    
  0.392307699      -7.69230770E-03   2.41974741E-03  -1.28401771E-05   2.41978141E-03  -1.25930849E-02   0.00000000    
  0.400000006      -7.69230770E-03   2.46509048E-03  -1.21333742E-05   2.46512028E-03  -1.23763429E-02   0.00000000    
  0.407692313      -7.69230770E-03   2.50774459E-03  -1.13880769E-05   2.50777043E-03  -1.21518476E-02   0.00000000    
  0.415384620      -7.69230770E-03   2.54757213E-03  -1.06040607E-05   2.54759425E-03  -1.19199054E-02   0.00000000    
  0.423076928      -7.69230770E-03   2.58443807E-03  -9.78212120E-06   2.58445670E-03  -1.16808480E-02   0.00000000    
  0.430769235      -7.69230770E-03   2.61820829E-03  -8.92231037E-06   2.61822343E-03  -1.14350412E-02   0.00000000    
  0.438461542      -7.69230770E-03   2.64875265E-03  -8.02546674E-06   2.64876476E-03  -1.11828847E-02   0.00000000    
  0.446153849      -7.69230770E-03   2.67594261E-03  -7.09260576E-06   2.67595192E-03  -1.09248105E-02   0.00000000    
  0.453846157      -7.69230770E-03   2.69965502E-03  -6.12486747E-06   2.69966200E-03  -1.06612863E-02   0.00000000    
  0.461538464      -7.69230770E-03   2.71977228E-03  -5.12378620E-06   2.71977717E-03  -1.03928121E-02   0.00000000    
  0.469230771      -7.69230770E-03   2.73618149E-03  -4.09087579E-06   2.73618451E-03  -1.01199253E-02   0.00000000    
  0.476923078      -7.69230770E-03   2.74877623E-03  -3.02796002E-06   2.74877786E-03  -9.84319206E-03   0.00000000    
  0.484615386      -7.69230770E-03   2.75745918E-03  -1.93730534E-06   2.75745988E-03  -9.56321880E-03   0.00000000    
  0.492307693      -7.69230770E-03   2.76214001E-03  -8.21457434E-07   2.76214024E-03  -9.28064343E-03   0.00000000    
  0.500000000      -7.69230770E-03   2.76273792E-03   3.17375196E-07   2.76273792E-03  -8.99613369E-03   0.00000000    
  0.507692337      -7.69230770E-03   2.75918283E-03   1.47565879E-06   2.75918329E-03  -8.71038903E-03   0.00000000    
  0.515384674      -7.69230770E-03   2.75141583E-03   2.65037670E-06   2.75141699E-03  -8.42413679E-03   0.00000000    
  0.523077011      -7.69230770E-03   2.73938966E-03   3.83800671E-06   2.73939222E-03  -8.13813135E-03   0.00000000    
  0.530769348      -7.69230770E-03   2.72307033E-03   5.03487217E-06   2.72307498E-03  -7.85315316E-03   0.00000000    
  0.538461685      -7.69230770E-03   2.70243688E-03   6.23695405E-06   2.70244409E-03  -7.57000176E-03   0.00000000    
  0.546154022      -7.69230770E-03   2.67748372E-03   7.44008821E-06   2.67749396E-03  -7.28949485E-03   0.00000000    
  0.553846359      -7.69230770E-03   2.64822063E-03   8.63955665E-06   2.64823483E-03  -7.01246597E-03   0.00000000    
  0.561538696      -7.69230770E-03   2.61467206E-03   9.83109385E-06   2.61469046E-03  -6.73975702E-03   0.00000000    
  0.569231033      -7.69230770E-03   2.57688155E-03   1.10098563E-05   2.57690507E-03  -6.47221832E-03   0.00000000    
  0.576923370      -7.69230770E-03   2.53490638E-03   1.21707044E-05   2.53493548E-03  -6.21070666E-03   0.00000000    
  0.584615707      -7.69230770E-03   2.48882407E-03   1.33086642E-05   2.48885970E-03  -5.95607050E-03   0.00000000    
  0.592308044      -7.69230770E-03   2.43872846E-03   1.44184623E-05   2.43877107E-03  -5.70915593E-03   0.00000000    
  0.600000381      -7.69230770E-03   2.38473271E-03   1.54948229E-05   2.38478300E-03  -5.47079509E-03   0.00000000    
  0.607692719      -7.69230770E-03   2.32696789E-03   1.65323709E-05   2.32702657E-03  -5.24180476E-03   0.00000000    
  0.615385056      -7.69230770E-03   2.26558326E-03   1.75260411E-05   2.26565101E-03  -5.02297934E-03   0.00000000    
  0.623077393      -7.69230770E-03   2.20074668E-03   1.84705150E-05   2.20082421E-03  -4.81508300E-03   0.00000000    
  0.630769730      -7.69230770E-03   2.13264418E-03   1.93602791E-05   2.13273196E-03  -4.61885054E-03   0.00000000    
  0.638462067      -7.69230770E-03   2.06147903E-03   2.01906714E-05   2.06157798E-03  -4.43497580E-03   0.00000000    
  0.646154404      -7.69230770E-03   1.98747241E-03   2.09566697E-05   1.98758277E-03  -4.26410837E-03   0.00000000    
  0.653846741      -7.69230770E-03   1.91086123E-03   2.16532808E-05   1.91098393E-03  -4.10685083E-03   0.00000000    
  0.661539078      -7.69230770E-03   1.83190010E-03   2.22759754E-05   1.83203549E-03  -3.96375032E-03   0.00000000    
  0.669231415      -7.69230770E-03   1.75085722E-03   2.28207027E-05   1.75100588E-03  -3.83529579E-03   0.00000000    
  0.676923752      -7.69230770E-03   1.66801561E-03   2.32832772E-05   1.66817813E-03  -3.72191006E-03   0.00000000    
  0.684616089      -7.69230770E-03   1.58367096E-03   2.36602045E-05   1.58384768E-03  -3.62394843E-03   0.00000000    
  0.692308426      -7.69230770E-03   1.49813097E-03   2.39482670E-05   1.49832235E-03  -3.54169309E-03   0.00000000    
  0.700000763      -7.69230770E-03   1.41171331E-03   2.41445578E-05   1.41191971E-03  -3.47535126E-03   0.00000000    
  0.707693100      -7.69230770E-03   1.32474536E-03   2.42465449E-05   1.32496725E-03  -3.42504960E-03   0.00000000    
  0.715385437      -7.69230770E-03   1.23756076E-03   2.42525693E-05   1.23779837E-03  -3.39082978E-03   0.00000000    
  0.723077774      -7.69230770E-03   1.15049980E-03   2.41610123E-05   1.15075347E-03  -3.37264966E-03   0.00000000    
  0.730770111      -7.69230770E-03   1.06390601E-03   2.39710007E-05   1.06417609E-03  -3.37038096E-03   0.00000000    
  0.738462448      -7.69230770E-03   9.78125609E-04   2.36820124E-05   9.78412223E-04  -3.38380458E-03   0.00000000    
  0.746154785      -7.69230770E-03   8.93504592E-04   2.32942257E-05   8.93808203E-04  -3.41261178E-03   0.00000000    
  0.753847122      -7.69230770E-03   8.10388010E-04   2.28083500E-05   8.10708909E-04  -3.45640187E-03   0.00000000    
  0.761539459      -7.69230770E-03   7.29116844E-04   2.22255439E-05   7.29455496E-04  -3.51468567E-03   0.00000000    
  0.769231796      -7.69230770E-03   6.50026952E-04   2.15475284E-05   6.50383998E-04  -3.58688156E-03   0.00000000    
  0.776924133      -7.69230770E-03   5.73446800E-04   2.07766407E-05   5.73823054E-04  -3.67231877E-03   0.00000000    
  0.784616470      -7.69230770E-03   4.99695074E-04   1.99158185E-05   5.00091817E-04  -3.77023732E-03   0.00000000    
  0.792308807      -7.69230770E-03   4.29079810E-04   1.89682887E-05   4.29498876E-04  -3.87979043E-03   0.00000000    
  0.800001144      -7.69230770E-03   3.61895276E-04   1.79378912E-05   3.62339575E-04  -4.00004582E-03   0.00000000    
  0.807693481      -7.69230770E-03   2.98420986E-04   1.68291390E-05   2.98895146E-04  -4.12998721E-03   0.00000000    
  0.815385818      -7.69230770E-03   2.38919063E-04   1.56469068E-05   2.39430883E-04  -4.26851586E-03   0.00000000    
  0.823078156      -7.69230770E-03   1.83632568E-04   1.43965572E-05   1.84196033E-04  -4.41445503E-03   0.00000000    
  0.830770493      -7.69230770E-03   1.32783680E-04   1.30841454E-05   1.33426758E-04  -4.56654932E-03   0.00000000    
  0.838462830      -7.69230770E-03   8.65713082E-05   1.17161617E-05   8.73605168E-05  -4.72346833E-03   0.00000000    
  0.846155167      -7.69230770E-03   4.51690612E-05   1.02996883E-05   4.63284741E-05  -4.88380808E-03   0.00000000    
  0.853847504      -7.69230770E-03   8.72245710E-06   8.84251403E-06   1.24206008E-05  -5.04609151E-03   0.00000000    
  0.861539841      -7.69230770E-03  -2.26536777E-05   7.35313415E-06   2.38171724E-05  -5.20877214E-03   0.00000000    
  0.869232178      -7.69230770E-03  -4.88786245E-05   5.84100144E-06   4.92263862E-05  -5.37023321E-03   0.00000000    
  0.876924515      -7.69230770E-03  -6.99096781E-05   4.31682929E-06   7.00428282E-05  -5.52878901E-03   0.00000000    
  0.884616852      -7.69230770E-03  -8.57476771E-05   2.79302344E-06   8.57931518E-05  -5.68268448E-03   0.00000000    
  0.892309189      -7.69230770E-03  -9.64435312E-05   1.28419288E-06   9.64520805E-05  -5.83010120E-03   0.00000000    
  0.900001526      -7.69230770E-03  -1.02106947E-04  -1.91952012E-07   1.02107129E-04  -5.96915698E-03   0.00000000    
  0.907693863      -7.69230770E-03  -1.02919039E-04  -1.61280707E-06   1.02931670E-04  -6.09791372E-03   0.00000000    
  0.915386200      -7.69230770E-03  -9.91493216E-05  -2.94874098E-06   9.91931593E-05  -6.21439377E-03   0.00000000    
  0.923078537      -7.69230770E-03  -9.11800234E-05  -4.15886734E-06   9.12748219E-05  -6.31660875E-03   0.00000000    
  0.930770874      -7.69230770E-03  -7.95416927E-05  -5.18468141E-06   7.97104876E-05  -6.40261546E-03   0.00000000    
  0.938463211      -7.69230770E-03  -6.49652648E-05  -5.93961431E-06   6.52362214E-05  -6.47062529E-03   0.00000000    
  0.946155548      -7.69230770E-03  -4.84582124E-05  -6.29350916E-06   4.88651895E-05  -6.51920633E-03   0.00000000    
  0.953847885      -7.69230770E-03  -3.14093668E-05  -6.05482546E-06   3.19876417E-05  -6.54766243E-03   0.00000000    
  0.961540222      -7.69230770E-03  -1.57305749E-05  -4.96763050E-06   1.64963130E-05  -6.55670371E-03   0.00000000    
  0.969232559      -7.69230770E-03  -3.76473008E-06  -2.82018300E-06   4.70389477E-06  -6.54976536E-03   0.00000000    
  0.976924896      -7.69230770E-03   2.95078905E-07   2.87306193E-07   4.11845122E-07  -6.53271051E-03   0.00000000    
  0.984617233      -7.69230770E-03  -2.95078905E-07  -2.87306193E-07   4.11845122E-07  -6.53271051E-03   0.00000000    
  -7.69230770E-03   0.00000000      -1.12560235E-06   1.32740308E-06   1.74039644E-06  -1.29942708E-02   0.00000000    
   0.00000000       0.00000000       1.12565544E-06  -1.32738683E-06   1.74041838E-06  -1.29936943E-02  -6.85607549E-04
   7.69230770E-03   0.00000000       7.84053464E-06  -4.16760668E-06   8.87935403E-06  -1.29861617E-02  -1.92902144E-03
   1.53846154E-02   0.00000000       1.98465168E-05  -5.17370381E-06   2.05097895E-05  -1.29984505E-02  -3.85184982E-03
   2.30769236E-02   0.00000000       3.19002174E-05  -4.92519302E-06   3.22781852E-05  -1.30323516E-02  -5.72371343E-03
   3.07692308E-02   0.00000000       4.16037619E-05  -3.92611082E-06   4.17886040E-05  -1.30871246E-02  -7.09059509E-03
   3.84615399E-02   0.00000000       4.74388253E-05  -2.52825043E-06   4.75061497E-05  -1.31601943E-02  -7.62575353E-03
   4.61538471E-02   0.00000000       4.85569035E-05  -9.43163116E-07   4.85660603E-05  -1.32484082E-02  -7.12358719E-03
   5.38461544E-02   0.00000000       4.45305559E-05   7.06426647E-07   4.45361584E-05  -1.33485803E-02  -5.46589773E-03
   6.15384616E-02   0.00000000       3.52000461E-05   2.35013840E-06   3.52784118E-05  -1.34577258E-02  -2.59554037E-03
   6.92307726E-02   0.00000000       2.05767501E-05   3.94743256E-06   2.09519658E-05  -1.35731520E-02   1.50255591E-03
   7.69230798E-02   0.00000000       7.82360587E-07   5.47503805E-06   5.53065365E-06  -1.36924712E-02   6.81460463E-03
   8.46153870E-02   0.00000000      -2.39895544E-05   6.91970035E-06   2.49675977E-05  -1.38135925E-02   1.33069633E-02
   9.23076943E-02   0.00000000      -5.35001709E-05   8.27414715E-06   5.41362169E-05  -1.39346970E-02   2.09326539E-02
  0.100000001       0.00000000      -8.74830948E-05   9.53571453E-06   8.80012594E-05  -1.40542118E-02   2.96358727E-02
  0.107692309       0.00000000      -1.25655482E-04   1.07038504E-05   1.26110550E-04  -1.41707780E-02   3.93550359E-02
  0.115384616       0.00000000      -1.67727412E-04   1.17796581E-05   1.68140556E-04  -1.42832333E-02   5.00253215E-02
  0.123076923       0.00000000      -2.13408130E-04   1.27654557E-05   2.13789594E-04  -1.43905822E-02   6.15803674E-02
  0.130769238       0.00000000      -2.62409856E-04   1.36643830E-05   2.62765388E-04  -1.44919781E-02   7.39534572E-02
  0.138461545       0.00000000      -3.14451201E-04   1.44800060E-05   3.14784411E-04  -1.45867057E-02   8.70785415E-02
  0.146153852       0.00000000      -3.69259185E-04   1.52162320E-05   3.69572575E-04  -1.46741616E-02  0.100890785    
  0.153846160       0.00000000      -4.26570623E-04   1.58771509E-05   4.26865998E-04  -1.47538427E-02  0.115327127    
  0.161538467       0.00000000      -4.86133329E-04   1.64667144E-05   4.86412144E-04  -1.48253292E-02  0.130326584    
  0.169230774       0.00000000      -5.47706208E-04   1.69888845E-05   5.47969597E-04  -1.48882763E-02  0.145830423    
  0.176923081       0.00000000      -6.11059542E-04   1.74474335E-05   6.11308613E-04  -1.49424011E-02  0.161782295    
  0.184615389       0.00000000      -6.75974530E-04   1.78461087E-05   6.76210097E-04  -1.49874734E-02  0.178128242    
  0.192307696       0.00000000      -7.42243894E-04   1.81884079E-05   7.42466713E-04  -1.50233107E-02  0.194816723    
  0.200000003       0.00000000      -8.09669786E-04   1.84775326E-05   8.09880614E-04  -1.50497658E-02  0.211798385    
  0.207692310       0.00000000      -8.78064719E-04   1.87164369E-05   8.78264196E-04  -1.50667261E-02  0.229026139    
  0.215384617       0.00000000      -9.47249879E-04   1.89078655E-05   9.47438588E-04  -1.50741041E-02  0.246454939    
  0.223076925       0.00000000      -1.01705501E-03   1.90540577E-05   1.01723347E-03  -1.50718344E-02  0.264041662    
  0.230769232       0.00000000      -1.08731701E-03   1.91574582E-05   1.08748581E-03  -1.50598707E-02  0.281744808    
  0.238461539       0.00000000      -1.15787948E-03   1.92198477E-05   1.15803897E-03  -1.50381802E-02  0.299524605    
  0.246153846       0.00000000      -1.22859247E-03   1.92427360E-05   1.22874312E-03  -1.50067424E-02  0.317342550    
  0.253846169       0.00000000      -1.29930989E-03   1.92274128E-05   1.29945215E-03  -1.49655491E-02  0.335161358    
  0.261538476       0.00000000      -1.36989111E-03   1.91750896E-05   1.37002533E-03  -1.49145983E-02  0.352944791    
  0.269230783       0.00000000      -1.44019793E-03   1.90866940E-05   1.44032447E-03  -1.48538966E-02  0.370657474    
  0.276923090       0.00000000      -1.51009567E-03   1.89629118E-05   1.51021476E-03  -1.47834560E-02  0.388264686    
  0.284615397       0.00000000      -1.57945126E-03   1.88040722E-05   1.57956313E-03  -1.47032961E-02  0.405732125    
  0.292307705       0.00000000      -1.64813350E-03   1.86104389E-05   1.64823863E-03  -1.46134431E-02  0.423026145    
  0.300000012       0.00000000      -1.71601120E-03   1.83821430E-05   1.71610969E-03  -1.45139322E-02  0.440113187    
  0.307692319       0.00000000      -1.78295409E-03   1.81190026E-05   1.78304617E-03  -1.44048026E-02  0.456959754    
  0.315384626       0.00000000      -1.84883270E-03   1.78208575E-05   1.84891862E-03  -1.42861055E-02  0.473532647    
  0.323076934       0.00000000      -1.91351597E-03   1.74878351E-05   1.91359583E-03  -1.41579015E-02  0.489798576    
  0.330769241       0.00000000      -1.97687303E-03   1.71193005E-05   1.97694730E-03  -1.40202614E-02  0.505723953    
  0.338461548       0.00000000      -2.03877129E-03   1.67148082E-05   2.03883974E-03  -1.38732670E-02  0.521275342    
  0.346153855       0.00000000      -2.09907768E-03   1.62739670E-05   2.09914078E-03  -1.37170162E-02  0.536418796    
  0.353846163       0.00000000      -2.15765717E-03   1.57962768E-05   2.15771492E-03  -1.35516245E-02  0.551120341    
  0.361538470       0.00000000      -2.21437472E-03   1.52813736E-05   2.21442734E-03  -1.33772222E-02  0.565345883    
  0.369230777       0.00000000      -2.26909365E-03   1.47289074E-05   2.26914138E-03  -1.31939612E-02  0.579061031    
  0.376923084       0.00000000      -2.32167728E-03   1.41380933E-05   2.32172036E-03  -1.30020129E-02  0.592231452    
  0.384615391       0.00000000      -2.37198686E-03   1.35088676E-05   2.37202528E-03  -1.28015717E-02  0.604822576    
  0.392307699       0.00000000      -2.41988362E-03   1.28408465E-05   2.41991761E-03  -1.25928549E-02  0.616799891    
  0.400000006       0.00000000      -2.46522971E-03   1.21339599E-05   2.46525952E-03  -1.23761101E-02  0.628129005    
  0.407692313       0.00000000      -2.50788615E-03   1.13887472E-05   2.50791200E-03  -1.21516138E-02  0.638775587    
  0.415384620       0.00000000      -2.54771626E-03   1.06045336E-05   2.54773838E-03  -1.19196679E-02  0.648705781    
  0.423076928       0.00000000      -2.58458476E-03   9.78249773E-06   2.58460315E-03  -1.16806068E-02  0.657886147    
  0.430769235       0.00000000      -2.61835707E-03   8.92256412E-06   2.61837221E-03  -1.14347953E-02  0.666283607    
  0.438461542       0.00000000      -2.64890352E-03   8.02566319E-06   2.64891563E-03  -1.11826351E-02  0.673866451    
  0.446153849       0.00000000      -2.67609488E-03   7.09277356E-06   2.67610420E-03  -1.09245572E-02  0.680603206    
  0.453846157       0.00000000      -2.69980892E-03   6.12498161E-06   2.69981590E-03  -1.06610283E-02  0.686463773    
  0.461538464       0.00000000      -2.71992711E-03   5.12397764E-06   2.71993200E-03  -1.03925485E-02  0.691419721    
  0.469230771       0.00000000      -2.73633702E-03   4.09105132E-06   2.73634004E-03  -1.01196552E-02  0.695443630    
  0.476923078       0.00000000      -2.74893246E-03   3.02801504E-06   2.74893409E-03  -9.84291453E-03  0.698509812    
  0.484615386       0.00000000      -2.75761588E-03   1.93732012E-06   2.75761657E-03  -9.56293475E-03  0.700594902    
  0.492307693       0.00000000      -2.76229624E-03   8.21536844E-07   2.76229647E-03  -9.28035378E-03  0.701677382    
  0.500000000       0.00000000      -2.76289415E-03  -3.17408620E-07   2.76289415E-03  -8.99583660E-03  0.701737940    
  0.507692337       0.00000000      -2.75933836E-03  -1.47598723E-06   2.75933882E-03  -8.71008355E-03  0.700760424    
  0.515384674       0.00000000      -2.75157019E-03  -2.65060430E-06   2.75157136E-03  -8.42382479E-03  0.698730886    
  0.523077011       0.00000000      -2.73954286E-03  -3.83794622E-06   2.73954566E-03  -8.13781470E-03  0.695638537    
  0.530769348       0.00000000      -2.72322167E-03  -5.03488036E-06   2.72322632E-03  -7.85282906E-03  0.691475868    
  0.538461685       0.00000000      -2.70258612E-03  -6.23715141E-06   2.70259334E-03  -7.56967021E-03  0.686238647    
  0.546154022       0.00000000      -2.67763087E-03  -7.44046565E-06   2.67764111E-03  -7.28915539E-03  0.679926455    
  0.553846359       0.00000000      -2.64836499E-03  -8.64022968E-06   2.64837919E-03  -7.01211859E-03  0.672542572    
  0.561538696       0.00000000      -2.61481362E-03  -9.83188420E-06   2.61483202E-03  -6.73940405E-03  0.664093912    
  0.569231033       0.00000000      -2.57701939E-03  -1.10104247E-05   2.57704291E-03  -6.47186069E-03  0.654591978    
  0.576923370       0.00000000      -2.53504072E-03  -1.21713319E-05   2.53506983E-03  -6.21034345E-03  0.644051790    
  0.584615707       0.00000000      -2.48895469E-03  -1.33093445E-05   2.48899031E-03  -5.95570263E-03  0.632493198    
  0.592308044       0.00000000      -2.43885489E-03  -1.44190899E-05   2.43889750E-03  -5.70878526E-03  0.619940341    
  0.600000381       0.00000000      -2.38485495E-03  -1.54953286E-05   2.38490524E-03  -5.47042117E-03  0.606421471    
  0.607692719       0.00000000      -2.32708571E-03  -1.65330312E-05   2.32714438E-03  -5.24142757E-03  0.591969728    
  0.615385056       0.00000000      -2.26569618E-03  -1.75269543E-05   2.26576393E-03  -5.02259936E-03  0.576622486    
  0.623077393       0.00000000      -2.20085471E-03  -1.84714427E-05   2.20093224E-03  -4.81470115E-03  0.560421586    
  0.630769730       0.00000000      -2.13274662E-03  -1.93613432E-05   2.13283440E-03  -4.61846730E-03  0.543413222    
  0.638462067       0.00000000      -2.06157658E-03  -2.01918974E-05   2.06167554E-03  -4.43459209E-03  0.525648057    
  0.646154404       0.00000000      -1.98756414E-03  -2.09578866E-05   1.98767474E-03  -4.26372467E-03  0.507180750    
  0.653846741       0.00000000      -1.91094761E-03  -2.16546850E-05   1.91107031E-03  -4.10646806E-03  0.488070041    
  0.661539078       0.00000000      -1.83198077E-03  -2.22774033E-05   1.83211616E-03  -3.96337081E-03  0.468378663    
  0.669231415       0.00000000      -1.75093219E-03  -2.28220779E-05   1.75108085E-03  -3.83491977E-03  0.448172718    
  0.676923752       0.00000000      -1.66808488E-03  -2.32848924E-05   1.66824739E-03  -3.72153753E-03  0.427522033    
  0.684616089       0.00000000      -1.58373429E-03  -2.36617871E-05   1.58391113E-03  -3.62358172E-03  0.406499356    
  0.692308426       0.00000000      -1.49818859E-03  -2.39498295E-05   1.49837998E-03  -3.54133337E-03  0.385180205    
  0.700000763       0.00000000      -1.41176523E-03  -2.41461421E-05   1.41197164E-03  -3.47499899E-03  0.363642812    
  0.707693100       0.00000000      -1.32479134E-03  -2.42482474E-05   1.32501323E-03  -3.42470547E-03  0.341967314    
  0.715385437       0.00000000      -1.23760104E-03  -2.42542137E-05   1.23783865E-03  -3.39049473E-03  0.320235759    
  0.723077774       0.00000000      -1.15053472E-03  -2.41625312E-05   1.15078839E-03  -3.37232603E-03  0.298531413    
  0.730770111       0.00000000      -1.06393558E-03  -2.39723959E-05   1.06420566E-03  -3.37006920E-03  0.276938438    
  0.738462448       0.00000000      -9.78149939E-04  -2.36833548E-05   9.78436670E-04  -3.38350516E-03  0.255541712    
  0.746154785       0.00000000      -8.93524091E-04  -2.32955299E-05   8.93827702E-04  -3.41232494E-03  0.234425843    
  0.753847122       0.00000000      -8.10402795E-04  -2.28095887E-05   8.10723694E-04  -3.45612899E-03  0.213675216    
  0.761539459       0.00000000      -7.29127147E-04  -2.22267699E-05   7.29465857E-04  -3.51442676E-03  0.193373188    
  0.769231796       0.00000000      -6.50033064E-04  -2.15486798E-05   6.50390110E-04  -3.58663755E-03  0.173601881    
  0.776924133       0.00000000      -5.73448953E-04  -2.07776757E-05   5.73825266E-04  -3.67208989E-03  0.154441327    
  0.784616470       0.00000000      -4.99693677E-04  -1.99167043E-05   5.00090420E-04  -3.77002452E-03  0.135969400    
  0.792308807       0.00000000      -4.29075153E-04  -1.89690272E-05   4.29494248E-04  -3.87959369E-03  0.118261024    
  0.800001144       0.00000000      -3.61887651E-04  -1.79385152E-05   3.62331979E-04  -3.99986515E-03  0.101387821    
  0.807693481       0.00000000      -2.98410741E-04  -1.68296810E-05   2.98884959E-04  -4.12982237E-03   8.54175910E-02
  0.815385818       0.00000000      -2.38906490E-04  -1.56473325E-05   2.39418354E-04  -4.26836731E-03   7.04138279E-02
  0.823078156       0.00000000      -1.83618031E-04  -1.43969501E-05   1.84181568E-04  -4.41432232E-03   5.64351492E-02
  0.830770493       0.00000000      -1.32767600E-04  -1.30844019E-05   1.33410780E-04  -4.56643337E-03   4.35348526E-02
  0.838462830       0.00000000      -8.65541660E-05  -1.17162726E-05   8.73435420E-05  -4.72336821E-03   3.17602977E-02
  0.846155167       0.00000000      -4.51511078E-05  -1.02997456E-05   4.63109864E-05  -4.88372287E-03   2.11523790E-02
  0.853847504       0.00000000      -8.70407166E-06  -8.84240944E-06   1.24076214E-05  -5.04602166E-03   1.17447795E-02
  0.861539841       0.00000000       2.26721477E-05  -7.35290041E-06   2.38346674E-05  -5.20871626E-03   3.56326043E-03
  0.869232178       0.00000000       4.88968471E-05  -5.84065174E-06   4.92444415E-05  -5.37019083E-03  -3.37522058E-03
  0.876924515       0.00000000       6.99272932E-05  -4.31641865E-06   7.00603850E-05  -5.52875875E-03  -9.06355772E-03
  0.884616852       0.00000000       8.57643972E-05  -2.79250412E-06   8.58098501E-05  -5.68266585E-03  -1.35058640E-02
  0.892309189       0.00000000       9.64591018E-05  -1.28353588E-06   9.64676437E-05  -5.83009282E-03  -1.67191345E-02