 TITLE = "Post Processing Tecplot"
 VARIABLES = "X", "Y", "vf"
 ZONE T="BIG ZONE", I=         128 , J=         130 , DATAPACKING=POINT
           1           1   0.00000000    
           2           1   0.00000000    
           3           1   0.00000000    
           4           1   0.00000000    
           5           1   0.00000000    
           6           1   0.00000000    
           7           1   0.00000000    
           8           1   0.00000000    
           9           1   0.00000000    
          10           1   0.00000000    
          11           1   0.00000000    
          12           1   0.00000000    
          13           1   0.00000000    
          14           1   0.00000000    
          15           1   0.00000000    
          16           1   0.00000000    
          17           1   0.00000000    
          18           1   0.00000000    
          19           1   0.00000000    
          20           1   0.00000000    
          21           1   0.00000000    
          22           1   0.00000000    
          23           1   0.00000000    
          24           1   0.00000000    
          25           1   0.00000000    
          26           1   0.00000000    
          27           1   0.00000000    
          28           1   0.00000000    
          29           1   0.00000000    
          30           1   0.00000000    
          31           1   0.00000000    
          32           1   0.00000000    
          33           1   0.00000000    
          34           1   0.00000000    
          35           1   0.00000000    
          36           1   0.00000000    
          37           1   0.00000000    
          38           1   0.00000000    
          39           1   0.00000000    
          40           1   0.00000000    
          41           1   0.00000000    
          42           1   0.00000000    
          43           1   0.00000000    
          44           1   0.00000000    
          45           1   0.00000000    
          46           1   0.00000000    
          47           1   0.00000000    
          48           1   0.00000000    
          49           1   0.00000000    
          50           1   0.00000000    
          51           1   0.00000000    
          52           1   0.00000000    
          53           1   0.00000000    
          54           1   0.00000000    
          55           1   0.00000000    
          56           1   0.00000000    
          57           1   0.00000000    
          58           1   0.00000000    
          59           1   0.00000000    
          60           1   0.00000000    
          61           1   0.00000000    
          62           1   0.00000000    
          63           1   0.00000000    
          64           1   0.00000000    
          65           1   0.00000000    
          66           1   0.00000000    
          67           1   0.00000000    
          68           1   0.00000000    
          69           1   0.00000000    
          70           1   0.00000000    
          71           1   0.00000000    
          72           1   0.00000000    
          73           1   0.00000000    
          74           1   0.00000000    
          75           1   0.00000000    
          76           1   0.00000000    
          77           1   0.00000000    
          78           1   0.00000000    
          79           1   0.00000000    
          80           1   0.00000000    
          81           1   0.00000000    
          82           1   0.00000000    
          83           1   0.00000000    
          84           1   0.00000000    
          85           1   0.00000000    
          86           1   0.00000000    
          87           1   0.00000000    
          88           1   0.00000000    
          89           1   0.00000000    
          90           1   0.00000000    
          91           1   0.00000000    
          92           1   0.00000000    
          93           1   0.00000000    
          94           1   0.00000000    
          95           1   0.00000000    
          96           1   0.00000000    
          97           1   0.00000000    
          98           1   0.00000000    
          99           1   0.00000000    
         100           1   0.00000000    
         101           1   0.00000000    
         102           1   0.00000000    
         103           1   0.00000000    
         104           1   0.00000000    
         105           1   0.00000000    
         106           1   0.00000000    
         107           1   0.00000000    
         108           1   0.00000000    
         109           1   0.00000000    
         110           1   0.00000000    
         111           1   0.00000000    
         112           1   0.00000000    
         113           1   0.00000000    
         114           1   0.00000000    
         115           1   0.00000000    
         116           1   0.00000000    
         117           1   0.00000000    
         118           1   0.00000000    
         119           1   0.00000000    
         120           1   0.00000000    
         121           1   0.00000000    
         122           1   0.00000000    
         123           1   0.00000000    
         124           1   0.00000000    
         125           1   0.00000000    
         126           1   0.00000000    
         127           1   0.00000000    
         128           1   0.00000000    
           1           2  -3.76259959E-06
           2           2  -1.02475888E-05
           3           2  -1.21870953E-05
           4           2  -1.10135006E-05
           5           2  -7.86264172E-06
           6           2  -3.55175212E-06
           7           2   1.38751238E-06
           8           2   6.61547210E-06
           9           2   1.19154583E-05
          10           2   1.71479496E-05
          11           2   2.22228082E-05
          12           2   2.70815617E-05
          13           2   3.16874357E-05
          14           2   3.60188533E-05
          15           2   4.00643257E-05
          16           2   4.38194256E-05
          17           2   4.72851607E-05
          18           2   5.04664422E-05
          19           2   5.33705170E-05
          20           2   5.60066401E-05
          21           2   5.83851179E-05
          22           2   6.05170717E-05
          23           2   6.24135573E-05
          24           2   6.40857907E-05
          25           2   6.55448312E-05
          26           2   6.68013163E-05
          27           2   6.78653669E-05
          28           2   6.87460270E-05
          29           2   6.94523624E-05
          30           2   6.99916709E-05
          31           2   7.03715195E-05
          32           2   7.05980565E-05
          33           2   7.06767532E-05
          34           2   7.06117498E-05
          35           2   7.04072590E-05
          36           2   7.00663149E-05
          37           2   6.95915296E-05
          38           2   6.89845037E-05
          39           2   6.82463724E-05
          40           2   6.73775940E-05
          41           2   6.63785177E-05
          42           2   6.52489762E-05
          43           2   6.39887730E-05
          44           2   6.25966495E-05
          45           2   6.10717252E-05
          46           2   5.94129197E-05
          47           2   5.76189086E-05
          48           2   5.56888044E-05
          49           2   5.36221560E-05
          50           2   5.14173771E-05
          51           2   4.90740567E-05
          52           2   4.65921657E-05
          53           2   4.39718315E-05
          54           2   4.12140689E-05
          55           2   3.83192310E-05
          56           2   3.52902389E-05
          57           2   3.21285952E-05
          58           2   2.88374576E-05
          59           2   2.54207644E-05
          60           2   2.18831847E-05
          61           2   1.82306976E-05
          62           2   1.44687674E-05
          63           2   1.06044199E-05
          64           2   6.64594290E-06
          65           2   2.60260913E-06
          66           2  -1.51682002E-06
          67           2  -5.70094562E-06
          68           2  -9.93769754E-06
          69           2  -1.42149293E-05
          70           2  -1.85197823E-05
          71           2  -2.28379668E-05
          72           2  -2.71544232E-05
          73           2  -3.14533281E-05
          74           2  -3.57186800E-05
          75           2  -3.99329838E-05
          76           2  -4.40798358E-05
          77           2  -4.81411880E-05
          78           2  -5.20988251E-05
          79           2  -5.59340697E-05
          80           2  -5.96292775E-05
          81           2  -6.31661387E-05
          82           2  -6.65257394E-05
          83           2  -6.96904099E-05
          84           2  -7.26430371E-05
          85           2  -7.53659697E-05
          86           2  -7.78434114E-05
          87           2  -8.00592752E-05
          88           2  -8.19991110E-05
          89           2  -8.36497711E-05
          90           2  -8.49982971E-05
          91           2  -8.60340297E-05
          92           2  -8.67471244E-05
          93           2  -8.71295415E-05
          94           2  -8.71746379E-05
          95           2  -8.68777788E-05
          96           2  -8.62358429E-05
          97           2  -8.52476005E-05
          98           2  -8.39136992E-05
          99           2  -8.22368675E-05
         100           2  -8.02214781E-05
         101           2  -7.78737813E-05
         102           2  -7.52022243E-05
         103           2  -7.22174227E-05
         104           2  -6.89314111E-05
         105           2  -6.53583775E-05
         106           2  -6.15146128E-05
         107           2  -5.74181104E-05
         108           2  -5.30890393E-05
         109           2  -4.85494493E-05
         110           2  -4.38236202E-05
         111           2  -3.89384368E-05
         112           2  -3.39230864E-05
         113           2  -2.88099945E-05
         114           2  -2.36353626E-05
         115           2  -1.84399250E-05
         116           2  -1.32703635E-05
         117           2  -8.18113767E-06
         118           2  -3.23743552E-06
         119           2   1.48130300E-06
         120           2   5.87488421E-06
         121           2   9.81347966E-06
         122           2   1.31241550E-05
         123           2   1.55710350E-05
         124           2   1.68288916E-05
         125           2   1.64573466E-05
         126           2   1.39055337E-05
         127           2   8.70817530E-06
         128           2   8.57995815E-07
           1           3  -1.39138774E-05
           2           3  -2.85581209E-05
           3           3  -3.18577877E-05
           4           3  -2.66638963E-05
           5           3  -1.56068400E-05
           6           3  -7.53049733E-07
           7           3   1.63932655E-05
           8           3   3.47693276E-05
           9           3   5.36325315E-05
          10           3   7.24663259E-05
          11           3   9.09126757E-05
          12           3   1.08725908E-04
          13           3   1.25739578E-04
          14           3   1.41844663E-04
          15           3   1.56974726E-04
          16           3   1.71092994E-04
          17           3   1.84186152E-04
          18           3   1.96256937E-04
          19           3   2.07320336E-04
          20           3   2.17399938E-04
          21           3   2.26525386E-04
          22           3   2.34730076E-04
          23           3   2.42049704E-04
          24           3   2.48521101E-04
          25           3   2.54181505E-04
          26           3   2.59066030E-04
          27           3   2.63209484E-04
          28           3   2.66644784E-04
          29           3   2.69402168E-04
          30           3   2.71509605E-04
          31           3   2.72991922E-04
          32           3   2.73872633E-04
          33           3   2.74171063E-04
          34           3   2.73904327E-04
          35           3   2.73087091E-04
          36           3   2.71731231E-04
          37           3   2.69844575E-04
          38           3   2.67435884E-04
          39           3   2.64510134E-04
          40           3   2.61068839E-04
          41           3   2.57114822E-04
          42           3   2.52649130E-04
          43           3   2.47669668E-04
          44           3   2.42174152E-04
          45           3   2.36160486E-04
          46           3   2.29624988E-04
          47           3   2.22565184E-04
          48           3   2.14978762E-04
          49           3   2.06863217E-04
          50           3   1.98217749E-04
          51           3   1.89040555E-04
          52           3   1.79332317E-04
          53           3   1.69095321E-04
          54           3   1.58333700E-04
          55           3   1.47053739E-04
          56           3   1.35262788E-04
          57           3   1.22971862E-04
          58           3   1.10193461E-04
          59           3   9.69432585E-05
          60           3   8.32401638E-05
          61           3   6.91069945E-05
          62           3   5.45666080E-05
          63           3   3.96473697E-05
          64           3   2.43806317E-05
          65           3   8.80186235E-06
          66           3  -7.05140110E-06
          67           3  -2.31375980E-05
          68           3  -3.94136987E-05
          69           3  -5.58312604E-05
          70           3  -7.23391931E-05
          71           3  -8.88836730E-05
          72           3  -1.05408013E-04
          73           3  -1.21852594E-04
          74           3  -1.38156873E-04
          75           3  -1.54256239E-04
          76           3  -1.70086932E-04
          77           3  -1.85581972E-04
          78           3  -2.00672774E-04
          79           3  -2.15290624E-04
          80           3  -2.29366662E-04
          81           3  -2.42833004E-04
          82           3  -2.55621679E-04
          83           3  -2.67665571E-04
          84           3  -2.78899330E-04
          85           3  -2.89259042E-04
          86           3  -2.98684434E-04
          87           3  -3.07117938E-04
          88           3  -3.14504665E-04
          89           3  -3.20794556E-04
          90           3  -3.25942412E-04
          91           3  -3.29906848E-04
          92           3  -3.32651980E-04
          93           3  -3.34148062E-04
          94           3  -3.34371900E-04
          95           3  -3.33306030E-04
          96           3  -3.30939132E-04
          97           3  -3.27267189E-04
          98           3  -3.22293665E-04
          99           3  -3.16028978E-04
         100           3  -3.08490300E-04
         101           3  -2.99702981E-04
         102           3  -2.89699412E-04
         103           3  -2.78519641E-04
         104           3  -2.66211486E-04
         105           3  -2.52829806E-04
         106           3  -2.38437118E-04
         107           3  -2.23103998E-04
         108           3  -2.06908895E-04
         109           3  -1.89938248E-04
         110           3  -1.72287866E-04
         111           3  -1.54062654E-04
         112           3  -1.35378505E-04
         113           3  -1.16363735E-04
         114           3  -9.71615882E-05
         115           3  -7.79331604E-05
         116           3  -5.88621624E-05
         117           3  -4.01613834E-05
         118           3  -2.20810980E-05
         119           3  -4.92125355E-06
         120           3   1.09520988E-05
         121           3   2.50843550E-05
         122           3   3.69031768E-05
         123           3   4.56829512E-05
         124           3   5.05107637E-05
         125           3   5.02797520E-05
         126           3   4.37800736E-05
         127           3   3.01136133E-05
         128           3   9.53287872E-06
           1           4  -2.60518136E-05
           2           4  -4.82801079E-05
           3           4  -5.05209937E-05
           4           4  -3.76750941E-05
           5           4  -1.40850625E-05
           6           4   1.67779326E-05
           7           4   5.22625742E-05
           8           4   9.03956679E-05
           9           4   1.29729291E-04
          10           4   1.69211009E-04
          11           4   2.08082012E-04
          12           4   2.45800533E-04
          13           4   2.81986169E-04
          14           4   3.16378515E-04
          15           4   3.48807313E-04
          16           4   3.79170146E-04
          17           4   4.07415035E-04
          18           4   4.33528505E-04
          19           4   4.57525224E-04
          20           4   4.79441223E-04
          21           4   4.99326445E-04
          22           4   5.17241773E-04
          23           4   5.33254293E-04
          24           4   5.47434785E-04
          25           4   5.59855602E-04
          26           4   5.70588221E-04
          27           4   5.79701446E-04
          28           4   5.87262271E-04
          29           4   5.93332690E-04
          30           4   5.97969978E-04
          31           4   6.01226580E-04
          32           4   6.03149820E-04
          33           4   6.03781897E-04
          34           4   6.03157328E-04
          35           4   6.01308246E-04
          36           4   5.98259736E-04
          37           4   5.94031822E-04
          38           4   5.88640338E-04
          39           4   5.82096283E-04
          40           4   5.74408390E-04
          41           4   5.65580965E-04
          42           4   5.55616221E-04
          43           4   5.44512295E-04
          44           4   5.32266102E-04
          45           4   5.18875546E-04
          46           4   5.04334574E-04
          47           4   4.88638994E-04
          48           4   4.71784791E-04
          49           4   4.53769637E-04
          50           4   4.34591551E-04
          51           4   4.14251204E-04
          52           4   3.92752670E-04
          53           4   3.70102876E-04
          54           4   3.46312474E-04
          55           4   3.21395521E-04
          56           4   2.95371865E-04
          57           4   2.68266478E-04
          58           4   2.40109875E-04
          59           4   2.10937054E-04
          60           4   1.80790958E-04
          61           4   1.49720407E-04
          62           4   1.17780190E-04
          63           4   8.50315919E-05
          64           4   5.15451793E-05
          65           4   1.73959579E-05
          66           4  -1.73304943E-05
          67           4  -5.25446376E-05
          68           4  -8.81507585E-05
          69           4  -1.24043770E-04
          70           4  -1.60113414E-04
          71           4  -1.96243142E-04
          72           4  -2.32309336E-04
          73           4  -2.68184318E-04
          74           4  -3.03734385E-04
          75           4  -3.38823826E-04
          76           4  -3.73311719E-04
          77           4  -4.07053682E-04
          78           4  -4.39904165E-04
          79           4  -4.71716165E-04
          80           4  -5.02341310E-04
          81           4  -5.31632279E-04
          82           4  -5.59443608E-04
          83           4  -5.85631235E-04
          84           4  -6.10056450E-04
          85           4  -6.32583105E-04
          86           4  -6.53080409E-04
          87           4  -6.71426184E-04
          88           4  -6.87504129E-04
          89           4  -7.01206736E-04
          90           4  -7.12436624E-04
          91           4  -7.21106480E-04
          92           4  -7.27141218E-04
          93           4  -7.30476633E-04
          94           4  -7.31062551E-04
          95           4  -7.28863350E-04
          96           4  -7.23855861E-04
          97           4  -7.16032519E-04
          98           4  -7.05401471E-04
          99           4  -6.91985362E-04
         100           4  -6.75823598E-04
         101           4  -6.56971126E-04
         102           4  -6.35499891E-04
         103           4  -6.11497497E-04
         104           4  -5.85068483E-04
         105           4  -5.56333922E-04
         106           4  -5.25431475E-04
         107           4  -4.92516265E-04
         108           4  -4.57761140E-04
         109           4  -4.21357399E-04
         110           4  -3.83515959E-04
         111           4  -3.44469066E-04
         112           4  -3.04473564E-04
         113           4  -2.63813039E-04
         114           4  -2.22803254E-04
         115           4  -1.81798809E-04
         116           4  -1.41201308E-04
         117           4  -1.01471895E-04
         118           4  -6.31460716E-05
         119           4  -2.68547101E-05
         120           4   6.64938989E-06
         121           4   3.64580555E-05
         122           4   6.14682867E-05
         123           4   8.03414587E-05
         124           4   9.14756602E-05
         125           4   9.30270689E-05
         126           4   8.30565041E-05
         127           4   5.99794730E-05
         128           4   2.33686533E-05
           1           5  -3.70958987E-05
           2           5  -6.40699873E-05
           3           5  -6.16029647E-05
           4           5  -3.69031222E-05
           5           5   3.87766613E-06
           6           5   5.58196116E-05
           7           5   1.15073191E-04
           8           5   1.78682632E-04
           9           5   2.44407769E-04
          10           5   3.10568517E-04
          11           5   3.75916774E-04
          12           5   4.39536583E-04
          13           5   5.00765513E-04
          14           5   5.59136330E-04
          15           5   6.14330755E-04
          16           5   6.66145352E-04
          17           5   7.14463880E-04
          18           5   7.59238028E-04
          19           5   8.00470239E-04
          20           5   8.38199572E-04
          21           5   8.72494711E-04
          22           5   9.03443142E-04
          23           5   9.31144867E-04
          24           5   9.55709314E-04
          25           5   9.77249234E-04
          26           5   9.95878130E-04
          27           5   1.01170689E-03
          28           5   1.02484284E-03
          29           5   1.03538623E-03
          30           5   1.04343193E-03
          31           5   1.04906631E-03
          32           5   1.05236738E-03
          33           5   1.05340383E-03
          34           5   1.05223735E-03
          35           5   1.04891765E-03
          36           5   1.04348932E-03
          37           5   1.03598752E-03
          38           5   1.02643936E-03
          39           5   1.01486559E-03
          40           5   1.00128155E-03
          41           5   9.85695748E-04
          42           5   9.68112668E-04
          43           5   9.48533067E-04
          44           5   9.26955196E-04
          45           5   9.03374399E-04
          46           5   8.77785496E-04
          47           5   8.50183307E-04
          48           5   8.20563466E-04
          49           5   7.88925099E-04
          50           5   7.55266927E-04
          51           5   7.19594362E-04
          52           5   6.81917649E-04
          53           5   6.42252737E-04
          54           5   6.00617845E-04
          55           5   5.57042949E-04
          56           5   5.11564023E-04
          57           5   4.64228389E-04
          58           5   4.15089948E-04
          59           5   3.64214036E-04
          60           5   3.11675569E-04
          61           5   2.57558539E-04
          62           5   2.01962568E-04
          63           5   1.44996331E-04
          64           5   8.67833660E-05
          65           5   2.74530157E-05
          66           5  -3.28470815E-05
          67           5  -9.39608726E-05
          68           5  -1.55720016E-04
          69           5  -2.17945795E-04
          70           5  -2.80447450E-04
          71           5  -3.43022810E-04
          72           5  -4.05459607E-04
          73           5  -4.67539299E-04
          74           5  -5.29034704E-04
          75           5  -5.89710427E-04
          76           5  -6.49322988E-04
          77           5  -7.07629311E-04
          78           5  -7.64379394E-04
          79           5  -8.19321605E-04
          80           5  -8.72203906E-04
          81           5  -9.22774314E-04
          82           5  -9.70784749E-04
          83           5  -1.01599109E-03
          84           5  -1.05815509E-03
          85           5  -1.09704619E-03
          86           5  -1.13244308E-03
          87           5  -1.16413622E-03
          88           5  -1.19192852E-03
          89           5  -1.21563952E-03
          90           5  -1.23510126E-03
          91           5  -1.25016749E-03
          92           5  -1.26071041E-03
          93           5  -1.26662268E-03
          94           5  -1.26781955E-03
          95           5  -1.26423885E-03
          96           5  -1.25584484E-03
          97           5  -1.24262518E-03
          98           5  -1.22459431E-03
          99           5  -1.20179297E-03
         100           5  -1.17429020E-03
         101           5  -1.14218274E-03
         102           5  -1.10559433E-03
         103           5  -1.06467796E-03
         104           5  -1.01961475E-03
         105           5  -9.70615249E-04
         106           5  -9.17919213E-04
         107           5  -8.61796550E-04
         108           5  -8.02547787E-04
         109           5  -7.40505988E-04
         110           5  -6.76039315E-04
         111           5  -6.09552430E-04
         112           5  -5.41491900E-04
         113           5  -4.72350832E-04
         114           5  -4.02676902E-04
         115           5  -3.33081669E-04
         116           5  -2.64253700E-04
         117           5  -1.96976340E-04
         118           5  -1.32148867E-04
         119           5  -7.08143780E-05
         120           5  -1.41944138E-05
         121           5   3.62710816E-05
         122           5   7.88787074E-05
         123           5   1.11621455E-04
         124           5   1.32166955E-04
         125           5   1.37888026E-04
         126           5   1.26001760E-04
         127           5   9.39095626E-05
         128           5   3.97601398E-05
           1           6  -4.50698790E-05
           2           6  -7.20142198E-05
           3           6  -6.01514148E-05
           4           6  -1.88893009E-05
           5           6   4.38627903E-05
           6           6   1.21770769E-04
           7           6   2.09804493E-04
           8           6   3.04018555E-04
           9           6   4.01354308E-04
          10           6   4.99461836E-04
          11           6   5.96555939E-04
          12           6   6.91295951E-04
          13           6   7.82690535E-04
          14           6   8.70022282E-04
          15           6   9.52788221E-04
          16           6   1.03065313E-03
          17           6   1.10341259E-03
          18           6   1.17096340E-03
          19           6   1.23328040E-03
          20           6   1.29039795E-03
          21           6   1.34239474E-03
          22           6   1.38938124E-03
          23           6   1.43149123E-03
          24           6   1.46887067E-03
          25           6   1.50167674E-03
          26           6   1.53006741E-03
          27           6   1.55419973E-03
          28           6   1.57422503E-03
          29           6   1.59028778E-03
          30           6   1.60252559E-03
          31           6   1.61106198E-03
          32           6   1.61601091E-03
          33           6   1.61747378E-03
          34           6   1.61554001E-03
          35           6   1.61028444E-03
          36           6   1.60177390E-03
          37           6   1.59005995E-03
          38           6   1.57518650E-03
          39           6   1.55718415E-03
          40           6   1.53607747E-03
          41           6   1.51188206E-03
          42           6   1.48460583E-03
          43           6   1.45425356E-03
          44           6   1.42082490E-03
          45           6   1.38431578E-03
          46           6   1.34472433E-03
          47           6   1.30204437E-03
          48           6   1.25627359E-03
          49           6   1.20741245E-03
          50           6   1.15546782E-03
          51           6   1.10045087E-03
          52           6   1.04237883E-03
          53           6   9.81278718E-04
          54           6   9.17188008E-04
          55           6   8.50154145E-04
          56           6   7.80236674E-04
          57           6   7.07508472E-04
          58           6   6.32056617E-04
          59           6   5.53984253E-04
          60           6   4.73408058E-04
          61           6   3.90462170E-04
          62           6   3.05296649E-04
          63           6   2.18082860E-04
          64           6   1.29005202E-04
          65           6   3.82687176E-05
          66           6  -5.39032808E-05
          67           6  -1.47274259E-04
          68           6  -2.41586022E-04
          69           6  -3.36565892E-04
          70           6  -4.31926164E-04
          71           6  -5.27357624E-04