 TITLE = "Post Processing Tecplot"
 VARIABLES = "X", "Y", "U", "V", "Sx","Sy"
 ZONE T="BIG ZONE", I=         130 , J=          66 , DATAPACKING=POINT
           1           1  0.8155466      0.2788872      0.0000000E+00
  0.0000000E+00
           2           1   1.184453     -0.2788872      0.0000000E+00
  0.0000000E+00
           3           1   1.539986     -0.2661871      0.0000000E+00
  0.0000000E+00
           4           1   1.323788     -0.2585539      0.0000000E+00
  0.0000000E+00
           5           1   1.467238     -0.2592871      0.0000000E+00
  0.0000000E+00
           6           1   1.401637     -0.2561240      0.0000000E+00
  0.0000000E+00
           7           1   1.452148     -0.2542928      0.0000000E+00
  0.0000000E+00
           8           1   1.438634     -0.2515327      0.0000000E+00
  0.0000000E+00
           9           1   1.459844     -0.2492508      0.0000000E+00
  0.0000000E+00
          10           1   1.463118     -0.2469050      0.0000000E+00
  0.0000000E+00
          11           1   1.475779     -0.2448427      0.0000000E+00
  0.0000000E+00
          12           1   1.484433     -0.2429148      0.0000000E+00
  0.0000000E+00
          13           1   1.495236     -0.2412203      0.0000000E+00
  0.0000000E+00
          14           1   1.505559     -0.2397290      0.0000000E+00
  0.0000000E+00
          15           1   1.516402     -0.2384782      0.0000000E+00
  0.0000000E+00
          16           1   1.527398     -0.2374790      0.0000000E+00
  0.0000000E+00
          17           1   1.538662     -0.2367579      0.0000000E+00
  0.0000000E+00
          18           1   1.550182     -0.2363365      0.0000000E+00
  0.0000000E+00
          19           1   1.562004     -0.2362332      0.0000000E+00
  0.0000000E+00
          20           1   1.574182     -0.2364589      0.0000000E+00
  0.0000000E+00
          21           1   1.586788     -0.2370142      0.0000000E+00
  0.0000000E+00
          22           1   1.599906     -0.2378891      0.0000000E+00
  0.0000000E+00
          23           1   1.613620     -0.2390576      0.0000000E+00
  0.0000000E+00
          24           1   1.628015     -0.2404816      0.0000000E+00
  0.0000000E+00
          25           1   1.643160     -0.2421102      0.0000000E+00
  0.0000000E+00
          26           1   1.659112     -0.2438811      0.0000000E+00
  0.0000000E+00
          27           1   1.675898     -0.2457239      0.0000000E+00
  0.0000000E+00
          28           1   1.693523     -0.2475624      0.0000000E+00
  0.0000000E+00
          29           1   1.711960     -0.2493162      0.0000000E+00
  0.0000000E+00
          30           1   1.731151     -0.2509058      0.0000000E+00
  0.0000000E+00
          31           1   1.751010     -0.2522527      0.0000000E+00
  0.0000000E+00
          32           1   1.771424     -0.2532833      0.0000000E+00
  0.0000000E+00
          33           1   1.792260     -0.2539293      0.0000000E+00
  0.0000000E+00
          34           1   1.813363     -0.2541299      0.0000000E+00
  0.0000000E+00
          35           1   1.834571     -0.2538317      0.0000000E+00
  0.0000000E+00
          36           1   1.855713     -0.2529897      0.0000000E+00
  0.0000000E+00
          37           1   1.876618     -0.2515681      0.0000000E+00
  0.0000000E+00
          38           1   1.897121     -0.2495381      0.0000000E+00
  0.0000000E+00
          39           1   1.917069     -0.2468800      0.0000000E+00
  0.0000000E+00
          40           1   1.936320     -0.2435811      0.0000000E+00
  0.0000000E+00
          41           1   1.954753     -0.2396370      0.0000000E+00
  0.0000000E+00
          42           1   1.972264     -0.2350481      0.0000000E+00
  0.0000000E+00
          43           1   1.988772     -0.2298222      0.0000000E+00
  0.0000000E+00
          44           1   2.004218     -0.2239715      0.0000000E+00
  0.0000000E+00
          45           1   2.018563     -0.2175144      0.0000000E+00
  0.0000000E+00
          46           1   2.031787     -0.2104720      0.0000000E+00
  0.0000000E+00
          47           1   2.043887     -0.2028694      0.0000000E+00
  0.0000000E+00
          48           1   2.054876     -0.1947347      0.0000000E+00
  0.0000000E+00
          49           1   2.064776     -0.1860978      0.0000000E+00
  0.0000000E+00
          50           1   2.073621     -0.1769905      0.0000000E+00
  0.0000000E+00
          51           1   2.081449     -0.1674461      0.0000000E+00
  0.0000000E+00
          52           1   2.088300     -0.1574977      0.0000000E+00
  0.0000000E+00
          53           1   2.094220     -0.1471786      0.0000000E+00
  0.0000000E+00
          54           1   2.099248     -0.1365220      0.0000000E+00
  0.0000000E+00
          55           1   2.103427     -0.1255600      0.0000000E+00
  0.0000000E+00
          56           1   2.106790     -0.1143239      0.0000000E+00
  0.0000000E+00
          57           1   2.109371     -0.1028435      0.0000000E+00
  0.0000000E+00
          58           1   2.111197     -9.1147408E-02  0.0000000E+00
  0.0000000E+00
          59           1   2.112290     -7.9262801E-02  0.0000000E+00
  0.0000000E+00
          60           1   2.112669     -6.7215376E-02  0.0000000E+00
  0.0000000E+00
          61           1   2.112345     -5.5029266E-02  0.0000000E+00
  0.0000000E+00
          62           1   2.111327     -4.2727340E-02  0.0000000E+00
  0.0000000E+00
          63           1   2.109619     -3.0331584E-02  0.0000000E+00
  0.0000000E+00
          64           1   2.107221     -1.7862428E-02  0.0000000E+00
  0.0000000E+00
          65           1   2.104131     -5.3397110E-03  0.0000000E+00
  0.0000000E+00
          66           1   2.100344      7.2170114E-03  0.0000000E+00
  0.0000000E+00
          67           1   2.095853      1.9788997E-02  0.0000000E+00
  0.0000000E+00
          68           1   2.090647      3.2357700E-02  0.0000000E+00
  0.0000000E+00
          69           1   2.084718      4.4903886E-02  0.0000000E+00
  0.0000000E+00
          70           1   2.078055      5.7408996E-02  0.0000000E+00
  0.0000000E+00
          71           1   2.070646      6.9853149E-02  0.0000000E+00
  0.0000000E+00
          72           1   2.062481      8.2216017E-02  0.0000000E+00
  0.0000000E+00
          73           1   2.053549      9.4476290E-02  0.0000000E+00
  0.0000000E+00
          74           1   2.043842      0.1066111      0.0000000E+00
  0.0000000E+00
          75           1   2.033353      0.1185968      0.0000000E+00
  0.0000000E+00
          76           1   2.022075      0.1304083      0.0000000E+00
  0.0000000E+00
          77           1   2.010008      0.1420180      0.0000000E+00
  0.0000000E+00
          78           1   1.997150      0.1533974      0.0000000E+00
  0.0000000E+00
          79           1   1.983507      0.1645155      0.0000000E+00
  0.0000000E+00
          80           1   1.969087      0.1753403      0.0000000E+00
  0.0000000E+00
          81           1   1.953902      0.1858376      0.0000000E+00
  0.0000000E+00
          82           1   1.937973      0.1959709      0.0000000E+00
  0.0000000E+00
          83           1   1.921321      0.2057032      0.0000000E+00
  0.0000000E+00
          84           1   1.903981      0.2149957      0.0000000E+00
  0.0000000E+00
          85           1   1.885989      0.2238087      0.0000000E+00
  0.0000000E+00
          86           1   1.867391      0.2321020      0.0000000E+00
  0.0000000E+00
          87           1   1.848242      0.2398359      0.0000000E+00
  0.0000000E+00
          88           1   1.828602      0.2469705      0.0000000E+00
  0.0000000E+00
          89           1   1.808544      0.2534676      0.0000000E+00
  0.0000000E+00
          90           1   1.788147      0.2592916      0.0000000E+00
  0.0000000E+00
          91           1   1.767498      0.2644097      0.0000000E+00
  0.0000000E+00
          92           1   1.746693      0.2687935      0.0000000E+00
  0.0000000E+00
          93           1   1.725836      0.2724204      0.0000000E+00
  0.0000000E+00
          94           1   1.705036      0.2752742      0.0000000E+00
  0.0000000E+00
          95           1   1.684407      0.2773457      0.0000000E+00
  0.0000000E+00
          96           1   1.664063      0.2786356      0.0000000E+00
  0.0000000E+00
          97           1   1.644125      0.2791543      0.0000000E+00
  0.0000000E+00
          98           1   1.624703      0.2789237      0.0000000E+00
  0.0000000E+00
          99           1   1.605909      0.2779756      0.0000000E+00
  0.0000000E+00
         100           1   1.587839      0.2763554      0.0000000E+00
  0.0000000E+00
         101           1   1.570584      0.2741202      0.0000000E+00
  0.0000000E+00
         102           1   1.554214      0.2713373      0.0000000E+00
  0.0000000E+00
         103           1   1.538779      0.2680857      0.0000000E+00
  0.0000000E+00
         104           1   1.524309      0.2644519      0.0000000E+00
  0.0000000E+00
         105           1   1.510810      0.2605293      0.0000000E+00
  0.0000000E+00
         106           1   1.498261      0.2564158      0.0000000E+00
  0.0000000E+00
         107           1   1.486613      0.2522084      0.0000000E+00
  0.0000000E+00
         108           1   1.475797      0.2480026      0.0000000E+00
  0.0000000E+00
         109           1   1.465720      0.2438864      0.0000000E+00
  0.0000000E+00
         110           1   1.456274      0.2399403      0.0000000E+00
  0.0000000E+00
         111           1   1.447337      0.2362305      0.0000000E+00
  0.0000000E+00
         112           1   1.438783      0.2328107      0.0000000E+00
  0.0000000E+00
         113           1   1.430485      0.2297183      0.0000000E+00
  0.0000000E+00
         114           1   1.422334      0.2269765      0.0000000E+00
  0.0000000E+00
         115           1   1.414188      0.2245915      0.0000000E+00
  0.0000000E+00
         116           1   1.406077      0.2225632      0.0000000E+00
  0.0000000E+00
         117           1   1.397544      0.2208698      0.0000000E+00
  0.0000000E+00
         118           1   1.389632      0.2195125      0.0000000E+00
  0.0000000E+00
         119           1   1.379354      0.2184179      0.0000000E+00
  0.0000000E+00
         120           1   1.373805      0.2176630      0.0000000E+00
  0.0000000E+00
         121           1   1.357005      0.2170213      0.0000000E+00
  0.0000000E+00
         122           1   1.361586      0.2168282      0.0000000E+00
  0.0000000E+00
         123           1   1.325371      0.2163643      0.0000000E+00
  0.0000000E+00
         124           1   1.358084      0.2168752      0.0000000E+00
  0.0000000E+00
         125           1   1.276479      0.2157070      0.0000000E+00
  0.0000000E+00
         126           1   1.370568      0.2175632      0.0000000E+00
  0.0000000E+00
         127           1   1.195651      0.2133330      0.0000000E+00
  0.0000000E+00
         128           1   1.408165      0.2147594      0.0000000E+00
  0.0000000E+00
         129           1   1.055243      0.2234506      0.0000000E+00
  0.0000000E+00
         130           1   1.055243      0.2234506      0.0000000E+00
  0.0000000E+00
           1           2  0.8155466     -0.2788872      0.0000000E+00
  0.0000000E+00
           2           2   1.184453      0.2788872       1.166882    
   1.166882    
           3           2   1.539986      0.2661871       1.531065    
   1.531065    
           4           2   1.323788      0.2585539       1.317929    
   1.317929    
           5           2   1.467238      0.2592871       1.459399    
   1.459399    
           6           2   1.401637      0.2561240       1.395048    
   1.395048    
           7           2   1.452148      0.2542928       1.444903    
   1.444903    
           8           2   1.438634      0.2515327       1.431790    
   1.431790    
           9           2   1.459844      0.2492508       1.452802    
   1.452802    
          10           2   1.463118      0.2469050       1.456196    
   1.456196    
          11           2   1.475779      0.2448427       1.468798    
   1.468798    
          12           2   1.484433      0.2429148       1.477478    
   1.477478    
          13           2   1.495236      0.2412203       1.488259    
   1.488259    
          14           2   1.505559      0.2397290       1.498577    
   1.498577    
          15           2   1.516402      0.2384782       1.509401    
   1.509401    
          16           2   1.527398      0.2374790       1.520376    
   1.520376    
          17           2   1.538662      0.2367579       1.531613    
   1.531613    
          18           2   1.550182      0.2363365       1.543097    
   1.543097    
          19           2   1.562004      0.2362332       1.554872    
   1.554872    
          20           2   1.574182      0.2364589       1.566991    
   1.566991    
          21           2   1.586788      0.2370142       1.579524    
   1.579524    
          22           2   1.599906      0.2378891       1.592553    
   1.592553    
          23           2   1.613620      0.2390576       1.606163    
   1.606163    
          24           2   1.628015      0.2404816       1.620437    
   1.620437    
          25           2   1.643160      0.2421102       1.635446    
   1.635446    
          26           2   1.659112      0.2438811       1.651247    
   1.651247    
          27           2   1.675898      0.2457239       1.667872    
   1.667872    
          28           2   1.693523      0.2475624       1.685327    
   1.685327    
          29           2   1.711960      0.2493162       1.703588    
   1.703588    
          30           2   1.731151      0.2509058       1.722602    
   1.722602    
          31           2   1.751010      0.2522527       1.742287    
   1.742287    
          32           2   1.771424      0.2532833       1.762535    
   1.762535    
          33           2   1.792260      0.2539293       1.783216    
   1.783216    
          34           2   1.813363      0.2541299       1.804181    
   1.804181    
          35           2   1.834571      0.2538317       1.825271    
   1.825271    
          36           2   1.855713      0.2529897       1.846320    
   1.846320    
          37           2   1.876618      0.2515681       1.867160    
   1.867160    
          38           2   1.897121      0.2495381       1.887628    
   1.887628    
          39           2   1.917069      0.2468800       1.907573    
   1.907573    
          40           2   1.936320      0.2435811       1.926856    
   1.926856    
          41           2   1.954753      0.2396370       1.945356    
   1.945356    
          42           2   1.972264      0.2350481       1.962971    
   1.962971    
          43           2   1.988772      0.2298222       1.979620    
   1.979620    
          44           2   2.004218      0.2239715       1.995241    
   1.995241    
          45           2   2.018563      0.2175144       2.009796    
   2.009796    
          46           2   2.031787      0.2104720       2.023264    
   2.023264    
          47           2   2.043887      0.2028694       2.035639    
   2.035639    
          48           2   2.054876      0.1947347       2.046933    
   2.046933    
          49           2   2.064776      0.1860978       2.057168    
   2.057168    
          50           2   2.073621      0.1769905       2.066372    
   2.066372    
          51           2   2.081449      0.1674461       2.074584    
   2.074584    
          52           2   2.088300      0.1574977       2.081842    
   2.081842    
          53           2   2.094220      0.1471786       2.088188    
   2.088188    
          54           2   2.099248      0.1365220       2.093662    
   2.093662    
          55           2   2.103427      0.1255600       2.098302    
   2.098302    
          56           2   2.106790      0.1143239       2.102140    
   2.102140    
          57           2   2.109371      0.1028435       2.105211    
   2.105211    
          58           2   2.111197      9.1147408E-02   2.107537    
   2.107537    
          59           2   2.112290      7.9262801E-02   2.109140    
   2.109140    
          60           2   2.112669      6.7215376E-02   2.110036    
   2.110036    
          61           2   2.112345      5.5029266E-02   2.110236    
   2.110236    
          62           2   2.111327      4.2727340E-02   2.109747    
   2.109747    
          63           2   2.109619      3.0331584E-02   2.108572    
   2.108572    
          64           2   2.107221      1.7862428E-02   2.106709    
   2.106709    
          65           2   2.104131      5.3397110E-03   2.104155    
   2.104155    
          66           2   2.100344     -7.2170114E-03   2.100903    
   2.100903    
          67           2   2.095853     -1.9788997E-02   2.096944    
   2.096944    
          68           2   2.090647     -3.2357700E-02   2.092267    
   2.092267    
          69           2   2.084718     -4.4903886E-02   2.086862    
   2.086862    
          70           2   2.078055     -5.7408996E-02   2.080715    
   2.080715    
          71           2   2.070646     -6.9853149E-02   2.073813    
   2.073813    
          72           2   2.062481     -8.2216017E-02   2.066147    
   2.066147    
          73           2   2.053549     -9.4476290E-02   2.057701    
   2.057701    
          74           2   2.043842     -0.1066111       2.048467    
   2.048467    
          75           2   2.033353     -0.1185968       2.038435    
   2.038435    
          76           2   2.022075     -0.1304083       2.027599    
   2.027599    
          77           2   2.010008     -0.1420180       2.015955    
   2.015955    
          78           2   1.997150     -0.1533974       2.003500    
   2.003500    
          79           2   1.983507     -0.1645155       1.990237    
   1.990237    
          80           2   1.969087     -0.1753403       1.976175    
   1.976175    
          81           2   1.953902     -0.1858376       1.961322    
   1.961322    
          82           2   1.937973     -0.1959709       1.945699    
   1.945699    
          83           2   1.921321     -0.2057032       1.929325    
   1.929325    
          84           2   1.903981     -0.2149957       1.912233    
   1.912233    
          85           2   1.885989     -0.2238087       1.894458    
   1.894458    
          86           2   1.867391     -0.2321020       1.876046    
   1.876046    
          87           2   1.848242     -0.2398359       1.857050    
   1.857050    
          88           2   1.828602     -0.2469705       1.837531    
   1.837531    
          89           2   1.808544     -0.2534676       1.817560    
   1.817560    
          90           2   1.788147     -0.2592916       1.797217    
   1.797217    
          91           2   1.767498     -0.2644097       1.776589    
   1.776589    
          92           2   1.746693     -0.2687935       1.755773    
   1.755773    
          93           2   1.725836     -0.2724204       1.734874    
   1.734874    
          94           2   1.705036     -0.2752742       1.714002    
   1.714002    
          95           2   1.684407     -0.2773457       1.693274    
   1.693274    
          96           2   1.664063     -0.2786356       1.672806    
   1.672806    
          97           2   1.644125     -0.2791543       1.652720    
   1.652720    
          98           2   1.624703     -0.2789237       1.633131    
   1.633131    
          99           2   1.605909     -0.2779756       1.614152    
   1.614152    
         100           2   1.587839     -0.2763554       1.595886    
   1.595886    
         101           2   1.570584     -0.2741202       1.578425    
   1.578425    
         102           2   1.554214     -0.2713373       1.561842    
   1.561842    
         103           2   1.538779     -0.2680857       1.546193    
   1.546193    
         104           2   1.524309     -0.2644519       1.531510    
   1.531510    
         105           2   1.510810     -0.2605293       1.517804    
   1.517804    
         106           2   1.498261     -0.2564158       1.505056    
   1.505056    
         107           2   1.486613     -0.2522084       1.493220    
   1.493220    
         108           2   1.475797     -0.2480026       1.482231    
   1.482231    
         109           2   1.465720     -0.2438864       1.471997    
   1.471997    
         110           2   1.456274     -0.2399403       1.462410    
   1.462410    
         111           2   1.447337     -0.2362305       1.453349    
   1.453349    
         112           2   1.438783     -0.2328107       1.444689    
   1.444689    
         113           2   1.430485     -0.2297183       1.436301    
   1.436301    
         114           2   1.422334     -0.2269765       1.428074    
   1.428074    
         115           2   1.414188     -0.2245915       1.419867    
   1.419867    
         116           2   1.406077     -0.2225632       1.411709    
   1.411709    
         117           2   1.397544     -0.2208698       1.403131    
   1.403131    
         118           2   1.389632     -0.2195125       1.395202    
   1.395202    
         119           2   1.379354     -0.2184179       1.384868    
   1.384868    
         120           2   1.373805     -0.2176630       1.379367    
   1.379367    
         121           2   1.357005     -0.2170213       1.362429    
   1.362429    
         122           2   1.361586     -0.2168282       1.367217    
   1.367217    
         123           2   1.325371     -0.2163643       1.330644    
   1.330644    
         124           2   1.358084     -0.2168752       1.363901    
   1.363901    
         125           2   1.276479     -0.2157070       1.281489    
   1.281489    
         126           2   1.370568     -0.2175632       1.376767    
   1.376767    
         127           2   1.195651     -0.2133330       1.200221    
   1.200221    
         128           2   1.408165     -0.2147594       1.415058    
   1.415058    
         129           2   1.055243     -0.2234506       1.066833    
   1.066833    
         130           2   1.055243     -0.2234506      0.0000000E+00
  0.0000000E+00
           1           3  0.8080046     -0.4649803      0.0000000E+00
  0.0000000E+00
           2           3   1.191995      0.4649803       1.180493    
   1.180493    
           3           3   1.542441      0.4577946       1.541352    
   1.541352    
           4           3   1.317572      0.4446381       1.318323    
   1.318323    
           5           3   1.461589      0.4426259       1.460949    
   1.460949    
           6           3   1.392186      0.4360745       1.392375    
   1.392375    
           7           3   1.444241      0.4323608       1.443923    
   1.443923    
           8           3   1.430296      0.4272863       1.430246    
   1.430246    
           9           3   1.452743      0.4231415       1.452523    
   1.452523    
          10           3   1.456740      0.4188953       1.456596    
   1.456596    
          11           3   1.470563      0.4150352       1.470361    
   1.470361    
          12           3   1.480298      0.4113450       1.480108    
   1.480108    
          13           3   1.492324      0.4079324       1.492113    
   1.492113    
          14           3   1.503906      0.4047672       1.503687    
   1.503687    
          15           3   1.516093      0.4018956       1.515861    
   1.515861    
          16           3   1.528500      0.3993449       1.528257    
   1.528257    
          17           3   1.541248      0.3971633       1.540993    
   1.540993    
          18           3   1.554312      0.3953973       1.554044    
   1.554044    
          19           3   1.567718      0.3940928       1.567437    
   1.567437    
          20           3   1.581500      0.3932891       1.581204    
   1.581204    
          21           3   1.595695      0.3930119       1.595383    
   1.595383    
          22           3   1.610353      0.3932712       1.610025    
   1.610025    
          23           3   1.625525      0.3940543       1.625178    
   1.625178    
          24           3   1.641254      0.3953279       1.640888    
   1.640888    
          25           3   1.657583      0.3970364       1.657196    
   1.657196    
          26           3   1.674535      0.3991038       1.674128    
   1.674128    
          27           3   1.692117      0.4014365       1.691690    
   1.691690    
          28           3   1.710317      0.4039265       1.709871    
   1.709871    
          29           3   1.729098      0.4064551       1.728633    
   1.728633    
          30           3   1.748400      0.4088986       1.747919    
   1.747919    
          31           3   1.768137      0.4111295       1.767642    
   1.767642    
          32           3   1.788206      0.4130238       1.787701    
   1.787701    
          33           3   1.808482      0.4144599       1.807970    
   1.807970    
          34           3   1.828829      0.4153243       1.828313    
   1.828313    
          35           3   1.849099      0.4155123       1.848584    
   1.848584    
          36           3   1.869141      0.4149284       1.868632    
   1.868632    
          37           3   1.888805      0.4134899       1.888306    
   1.888306    
          38           3   1.907945      0.4111241       1.907461    
   1.907461    
          39           3   1.926428      0.4077709       1.925961    
   1.925961    
          40           3   1.944134      0.4033836       1.943689    
   1.943689    
          41           3   1.960958      0.3979257       1.960539    
   1.960539    
          42           3   1.976818      0.3913743       1.976426    
   1.976426    
          43           3   1.991650      0.3837173       1.991287    
   1.991287    
          44           3   2.005410      0.3749545       2.005078    
   2.005078    
          45           3   2.018073      0.3650960       2.017772    
   2.017772    
          46           3   2.029633      0.3541628       2.029364    
   2.029364    
          47           3   2.040098      0.3421835       2.039861    
   2.039861    
          48           3   2.049492      0.3291972       2.049284    
   2.049284    
          49           3   2.057843      0.3152477       2.057665    
   2.057665    
          50           3   2.065193      0.3003868       2.065042    
   2.065042    
          51           3   2.071584      0.2846701       2.071460    
   2.071460    
          52           3   2.077061      0.2681569       2.076961    
   2.076961    
          53           3   2.081668      0.2509090       2.081592    
   2.081592    
          54           3   2.085449      0.2329890       2.085394    
   2.085394    
          55           3   2.088444      0.2144612       2.088408    
   2.088408    
          56           3   2.090687      0.1953876       2.090670    
   2.090670    
          57           3   2.092209      0.1758295       2.092209    
   2.092209    
          58           3   2.093034      0.1558483       2.093050    
   2.093050    
          59           3   2.093184      0.1355012       2.093215    
   2.093215    
          60           3   2.092671      0.1148443       2.092716    
   2.092716    
          61           3   2.091507      9.3931489E-02   2.091567    
   2.091567    
          62           3   2.089697      7.2813876E-02   2.089769    
   2.089769    
          63           3   2.087243      5.1541314E-02   2.087328    
   2.087328    
          64           3   2.084143      3.0160964E-02   2.084241    
   2.084241    
          65           3   2.080393      8.7187625E-03   2.080503    
   2.080503    
          66           3   2.075985     -1.2740422E-02   2.076108    
   2.076108    
          67           3   2.070912     -3.4173422E-02   2.071047    
   2.071047    
          68           3   2.065164     -5.5536930E-02   2.065312    
   2.065312    
          69           3   2.058731     -7.6788589E-02   2.058891    
   2.058891    
          70           3   2.051603     -9.7885303E-02   2.051776    
   2.051776    
          71           3   2.043769     -0.1187843       2.043954    
   2.043954    
          72           3   2.035220     -0.1394416       2.035419    
   2.035419    
          73           3   2.025949     -0.1598125       2.026160    
   2.026160    
          74           3   2.015949     -0.1798505       2.016172    
   2.016172    
          75           3   2.005216     -0.1995084       2.005452    
   2.005452    
          76           3   1.993747     -0.2187367       1.993997    
   1.993997    
          77           3   1.981547     -0.2374848       1.981809    
   1.981809    
          78           3   1.968617     -0.2556995       1.968892    
   1.968892    
          79           3   1.954969     -0.2733264       1.955256    
   1.955256    
          80           3   1.940616     -0.2903094       1.940915    
   1.940915    
          81           3   1.925576     -0.3065913       1.925886    
   1.925886    
          82           3   1.909872     -0.3221124       1.910193    
   1.910193    
          83           3   1.893536     -0.3368145       1.893868    
   1.893868    
          84           3   1.876603     -0.3506373       1.876944    
   1.876944    
          85           3   1.859115     -0.3635227       1.859466    
   1.859466    
          86           3   1.841124     -0.3754137       1.841483    
   1.841483    
          87           3   1.822686     -0.3862543       1.823051    
   1.823051    