 variables = x, y
 zone i =         129  j =          65  f = block
  0.0000000E+00  7.8125000E-02  0.1562500      0.2343750      0.3125000    
  0.3906250      0.4687500      0.5468750      0.6250000      0.7031250    
  0.7812500      0.8593750      0.9375000       1.015625       1.093750    
   1.171875       1.250000       1.328125       1.406250       1.484375    
   1.562500       1.640625       1.718750       1.796875       1.875000    
   1.953125       2.031250       2.109375       2.187500       2.265625    
   2.343750       2.421875       2.500000       2.578125       2.656250    
   2.734375       2.812500       2.890625       2.968750       3.046875    
   3.125000       3.203125       3.281250       3.359375       3.437500    
   3.515625       3.593750       3.671875       3.750000       3.828125    
   3.906250       3.984375       4.062500       4.140625       4.218750    
   4.296875       4.375000       4.453125       4.531250       4.609375    
   4.687500       4.765625       4.843750       4.921875       5.000000    
   5.078125       5.156250       5.234375       5.312500       5.390625    
   5.468750       5.546875       5.625000       5.703125       5.781250    
   5.859375       5.937500       6.015625       6.093750       6.171875    
   6.250000       6.328125       6.406250       6.484375       6.562500    
   6.640625       6.718750       6.796875       6.875000       6.953125    
   7.031250       7.109375       7.187500       7.265625       7.343750    
   7.421875       7.500000       7.578125       7.656250       7.734375    
   7.812500       7.890625       7.968750       8.046875       8.125000    
   8.203125       8.281250       8.359375       8.437500       8.515625    
   8.593750       8.671875       8.750000       8.828125       8.906250    
   8.984375       9.062500       9.140625       9.218750       9.296875    
   9.375000       9.453125       9.531250       9.609375       9.687500    
   9.765625       9.843750       9.921875       10.00000      0.0000000E+00
  7.8125000E-02  0.1562500      0.2343750      0.3125000      0.3906250    
  0.4687500      0.5468750      0.6250000      0.7031250      0.7812500    
  0.8593750      0.9375000       1.015625       1.093750       1.171875    
   1.250000       1.328125       1.406250       1.484375       1.562500    
   1.640625       1.718750       1.796875       1.875000       1.953125    
   2.031250       2.109375       2.187500       2.265625       2.343750    
   2.421875       2.500000       2.578125       2.656250       2.734375    
   2.812500       2.890625       2.968750       3.046875       3.125000    
   3.203125       3.281250       3.359375       3.437500       3.515625    
   3.593750       3.671875       3.750000       3.828125       3.906250    
   3.984375       4.062500       4.140625       4.218750       4.296875    
   4.375000       4.453125       4.531250       4.609375       4.687500    
   4.765625       4.843750       4.921875       5.000000       5.078125    
   5.156250       5.234375       5.312500       5.390625       5.468750    
   5.546875       5.625000       5.703125       5.781250       5.859375    
   5.937500       6.015625       6.093750       6.171875       6.250000    
   6.328125       6.406250       6.484375       6.562500       6.640625    
   6.718750       6.796875       6.875000       6.953125       7.031250    
   7.109375       7.187500       7.265625       7.343750       7.421875    
   7.500000       7.578125       7.656250       7.734375       7.812500    
   7.890625       7.968750       8.046875       8.125000       8.203125    
   8.281250       8.359375       8.437500       8.515625       8.593750    
   8.671875       8.750000       8.828125       8.906250       8.984375    
   9.062500       9.140625       9.218750       9.296875       9.375000    
   9.453125       9.531250       9.609375       9.687500       9.765625    
   9.843750       9.921875       10.00000      0.0000000E+00  7.8125000E-02
  0.1562500      0.2343750      0.3125000      0.3906250      0.4687500    
  0.5468750      0.6250000      0.7031250      0.7812500      0.8593750    
  0.9375000       1.015625       1.093750       1.171875       1.250000    
   1.328125       1.406250       1.484375       1.562500       1.640625    
   1.718750       1.796875       1.875000       1.953125       2.031250    
   2.109375       2.187500       2.265625       2.343750       2.421875    
   2.500000       2.578125       2.656250       2.734375       2.812500    
   2.890625       2.968750       3.046875       3.125000       3.203125    
   3.281250       3.359375       3.437500       3.515625       3.593750    
   3.671875       3.750000       3.828125       3.906250       3.984375    
   4.062500       4.140625       4.218750       4.296875       4.375000    
   4.453125       4.531250       4.609375       4.687500       4.765625    
   4.843750       4.921875       5.000000       5.078125       5.156250    
   5.234375       5.312500       5.390625       5.468750       5.546875    
   5.625000       5.703125       5.781250       5.859375       5.937500    
   6.015625       6.093750       6.171875       6.250000       6.328125    
   6.406250       6.484375       6.562500       6.640625       6.718750    
   6.796875       6.875000       6.953125       7.031250       7.109375    
   7.187500       7.265625       7.343750       7.421875       7.500000    
   7.578125       7.656250       7.734375       7.812500       7.890625    
   7.968750       8.046875       8.125000       8.203125       8.281250    
   8.359375       8.437500       8.515625       8.593750       8.671875    
   8.750000       8.828125       8.906250       8.984375       9.062500    
   9.140625       9.218750       9.296875       9.375000       9.453125    
   9.531250       9.609375       9.687500       9.765625       9.843750    
   9.921875       10.00000      0.0000000E+00  7.8125000E-02  0.1562500    
  0.2343750      0.3125000      0.3906250      0.4687500      0.5468750    
  0.6250000      0.7031250      0.7812500      0.8593750      0.9375000    
   1.015625       1.093750       1.171875       1.250000       1.328125    
   1.406250       1.484375       1.562500       1.640625       1.718750    
   1.796875       1.875000       1.953125       2.031250       2.109375    
   2.187500       2.265625       2.343750       2.421875       2.500000    
   2.578125       2.656250       2.734375       2.812500       2.890625    
   2.968750       3.046875       3.125000       3.203125       3.281250    
   3.359375       3.437500       3.515625       3.593750       3.671875    
   3.750000       3.828125       3.906250       3.984375       4.062500    
   4.140625       4.218750       4.296875       4.375000       4.453125    
   4.531250       4.609375       4.687500       4.765625       4.843750    
   4.921875       5.000000       5.078125       5.156250       5.234375    
   5.312500       5.390625       5.468750       5.546875       5.625000    
   5.703125       5.781250       5.859375       5.937500       6.015625    
   6.093750       6.171875       6.250000       6.328125       6.406250    
   6.484375       6.562500       6.640625       6.718750       6.796875    
   6.875000       6.953125       7.031250       7.109375       7.187500    
   7.265625       7.343750       7.421875       7.500000       7.578125    
   7.656250       7.734375       7.812500       7.890625       7.968750    
   8.046875       8.125000       8.203125       8.281250       8.359375    
   8.437500       8.515625       8.593750       8.671875       8.750000    
   8.828125       8.906250       8.984375       9.062500       9.140625    
   9.218750       9.296875       9.375000       9.453125       9.531250    
   9.609375       9.687500       9.765625       9.843750       9.921875    
   10.00000      0.0000000E+00  7.8125000E-02  0.1562500      0.2343750    
  0.3125000      0.3906250      0.4687500      0.5468750      0.6250000    
  0.7031250      0.7812500      0.8593750      0.9375000       1.015625    
   1.093750       1.171875       1.250000       1.328125       1.406250    
   1.484375       1.562500       1.640625       1.718750       1.796875    
   1.875000       1.953125       2.031250       2.109375       2.187500    
   2.265625       2.343750       2.421875       2.500000       2.578125    
   2.656250       2.734375       2.812500       2.890625       2.968750    
   3.046875       3.125000       3.203125       3.281250       3.359375    
   3.437500       3.515625       3.593750       3.671875       3.750000    
   3.828125       3.906250       3.984375       4.062500       4.140625    
   4.218750       4.296875       4.375000       4.453125       4.531250    
   4.609375       4.687500       4.765625       4.843750       4.921875    
   5.000000       5.078125       5.156250       5.234375       5.312500    
   5.390625       5.468750       5.546875       5.625000       5.703125    
   5.781250       5.859375       5.937500       6.015625       6.093750    
   6.171875       6.250000       6.328125       6.406250       6.484375    
   6.562500       6.640625       6.718750       6.796875       6.875000    
   6.953125       7.031250       7.109375       7.187500       7.265625    
   7.343750       7.421875       7.500000       7.578125       7.656250    
   7.734375       7.812500       7.890625       7.968750       8.046875    
   8.125000       8.203125       8.281250       8.359375       8.437500    
   8.515625       8.593750       8.671875       8.750000       8.828125    
   8.906250       8.984375       9.062500       9.140625       9.218750    
   9.296875       9.375000       9.453125       9.531250       9.609375    
   9.687500       9.765625       9.843750       9.921875       10.00000    
  0.0000000E+00  7.8125000E-02  0.1562500      0.2343750      0.3125000    
  0.3906250      0.4687500      0.5468750      0.6250000      0.7031250    
  0.7812500      0.8593750      0.9375000       1.015625       1.093750    
   1.171875       1.250000       1.328125       1.406250       1.484375    
   1.562500       1.640625       1.718750       1.796875       1.875000    
   1.953125       2.031250       2.109375       2.187500       2.265625    
   2.343750       2.421875       2.500000       2.578125       2.656250    
   2.734375       2.812500       2.890625       2.968750       3.046875    
   3.125000       3.203125       3.281250       3.359375       3.437500    
   3.515625       3.593750       3.671875       3.750000       3.828125    
   3.906250       3.984375       4.062500       4.140625       4.218750    
   4.296875       4.375000       4.453125       4.531250       4.609375    
   4.687500       4.765625       4.843750       4.921875       5.000000    
   5.078125       5.156250       5.234375       5.312500       5.390625    
   5.468750       5.546875       5.625000       5.703125       5.781250    
   5.859375       5.937500       6.015625       6.093750       6.171875    
   6.250000       6.328125       6.406250       6.484375       6.562500    
   6.640625       6.718750       6.796875       6.875000       6.953125    
   7.031250       7.109375       7.187500       7.265625       7.343750    
   7.421875       7.500000       7.578125       7.656250       7.734375    
   7.812500       7.890625       7.968750       8.046875       8.125000    
   8.203125       8.281250       8.359375       8.437500       8.515625    
   8.593750       8.671875       8.750000       8.828125       8.906250    
   8.984375       9.062500       9.140625       9.218750       9.296875    
   9.375000       9.453125       9.531250       9.609375       9.687500    
   9.765625       9.843750       9.921875       10.00000      0.0000000E+00
  7.8125000E-02  0.1562500      0.2343750      0.3125000      0.3906250    
  0.4687500      0.5468750      0.6250000      0.7031250      0.7812500    
  0.8593750      0.9375000       1.015625       1.093750       1.171875    
   1.250000       1.328125       1.406250       1.484375       1.562500    
   1.640625       1.718750       1.796875       1.875000       1.953125    
   2.031250       2.109375       2.187500       2.265625       2.343750    
   2.421875       2.500000       2.578125       2.656250       2.734375    
   2.812500       2.890625       2.968750       3.046875       3.125000    
   3.203125       3.281250       3.359375       3.437500       3.515625    
   3.593750       3.671875       3.750000       3.828125       3.906250    
   3.984375       4.062500       4.140625       4.218750       4.296875    
   4.375000       4.453125       4.531250       4.609375       4.687500    
   4.765625       4.843750       4.921875       5.000000       5.078125    
   5.156250       5.234375       5.312500       5.390625       5.468750    
   5.546875       5.625000       5.703125       5.781250       5.859375    
   5.937500       6.015625       6.093750       6.171875       6.250000    
   6.328125       6.406250       6.484375       6.562500       6.640625    
   6.718750       6.796875       6.875000       6.953125       7.031250    
   7.109375       7.187500       7.265625       7.343750       7.421875    
   7.500000       7.578125       7.656250       7.734375       7.812500    
   7.890625       7.968750       8.046875       8.125000       8.203125    
   8.281250       8.359375       8.437500       8.515625       8.593750    
   8.671875       8.750000       8.828125       8.906250       8.984375    
   9.062500       9.140625       9.218750       9.296875       9.375000    
   9.453125       9.531250       9.609375       9.687500       9.765625    
   9.843750       9.921875       10.00000      0.0000000E+00  7.8125000E-02
  0.1562500      0.2343750      0.3125000      0.3906250      0.4687500    
  0.5468750      0.6250000      0.7031250      0.7812500      0.8593750    
  0.9375000       1.015625       1.093750       1.171875       1.250000    
   1.328125       1.406250       1.484375       1.562500       1.640625    
   1.718750       1.796875       1.875000       1.953125       2.031250    
   2.109375       2.187500       2.265625       2.343750       2.421875    
   2.500000       2.578125       2.656250       2.734375       2.812500    
   2.890625       2.968750       3.046875       3.125000       3.203125    
   3.281250       3.359375       3.437500       3.515625       3.593750    
   3.671875       3.750000       3.828125       3.906250       3.984375    
   4.062500       4.140625       4.218750       4.296875       4.375000    
   4.453125       4.531250       4.609375       4.687500       4.765625    
   4.843750       4.921875       5.000000       5.078125       5.156250    
   5.234375       5.312500       5.390625       5.468750       5.546875    
   5.625000       5.703125       5.781250       5.859375       5.937500    
   6.015625       6.093750       6.171875       6.250000       6.328125    
   6.406250       6.484375       6.562500       6.640625       6.718750    
   6.796875       6.875000       6.953125       7.031250       7.109375    
   7.187500       7.265625       7.343750       7.421875       7.500000    
   7.578125       7.656250       7.734375       7.812500       7.890625    
   7.968750       8.046875       8.125000       8.203125       8.281250    
   8.359375       8.437500       8.515625       8.593750       8.671875    
   8.750000       8.828125       8.906250       8.984375       9.062500    
   9.140625       9.218750       9.296875       9.375000       9.453125    
   9.531250       9.609375       9.687500       9.765625       9.843750    
   9.921875       10.00000      0.0000000E+00  7.8125000E-02  0.1562500    
  0.2343750      0.3125000      0.3906250      0.4687500      0.5468750    
  0.6250000      0.7031250      0.7812500      0.8593750      0.9375000    
   1.015625       1.093750       1.171875       1.250000       1.328125    
   1.406250       1.484375       1.562500       1.640625       1.718750    
   1.796875       1.875000       1.953125       2.031250       2.109375    
   2.187500       2.265625       2.343750       2.421875       2.500000    
   2.578125       2.656250       2.734375       2.812500       2.890625    
   2.968750       3.046875       3.125000       3.203125       3.281250    
   3.359375       3.437500       3.515625       3.593750       3.671875    
   3.750000       3.828125       3.906250       3.984375       4.062500    
   4.140625       4.218750       4.296875       4.375000       4.453125    
   4.531250       4.609375       4.687500       4.765625       4.843750    
   4.921875       5.000000       5.078125       5.156250       5.234375    
   5.312500       5.390625       5.468750       5.546875       5.625000    
   5.703125       5.781250       5.859375       5.937500       6.015625    
   6.093750       6.171875       6.250000       6.328125       6.406250    
   6.484375       6.562500       6.640625       6.718750       6.796875    
   6.875000       6.953125       7.031250       7.109375       7.187500    
   7.265625       7.343750       7.421875       7.500000       7.578125    
   7.656250       7.734375       7.812500       7.890625       7.968750    
   8.046875       8.125000       8.203125       8.281250       8.359375    
   8.437500       8.515625       8.593750       8.671875       8.750000    
   8.828125       8.906250       8.984375       9.062500       9.140625    
   9.218750       9.296875       9.375000       9.453125       9.531250    
   9.609375       9.687500       9.765625       9.843750       9.921875    
   10.00000      0.0000000E+00  7.8125000E-02  0.1562500      0.2343750    
  0.3125000      0.3906250      0.4687500      0.5468750      0.6250000    
  0.7031250      0.7812500      0.8593750      0.9375000       1.015625    
   1.093750       1.171875       1.250000       1.328125       1.406250    
   1.484375       1.562500       1.640625       1.718750       1.796875    
   1.875000       1.953125       2.031250       2.109375       2.187500    
   2.265625       2.343750       2.421875       2.500000       2.578125    
   2.656250       2.734375       2.812500       2.890625       2.968750    
   3.046875       3.125000       3.203125       3.281250       3.359375    
   3.437500       3.515625       3.593750       3.671875       3.750000    
   3.828125       3.906250       3.984375       4.062500       4.140625    
   4.218750       4.296875       4.375000       4.453125       4.531250    
   4.609375       4.687500       4.765625       4.843750       4.921875    
   5.000000       5.078125       5.156250       5.234375       5.312500    
   5.390625       5.468750       5.546875       5.625000       5.703125    
   5.781250       5.859375       5.937500       6.015625       6.093750    
   6.171875       6.250000       6.328125       6.406250       6.484375    
   6.562500       6.640625       6.718750       6.796875       6.875000    
   6.953125       7.031250       7.109375       7.187500       7.265625    
   7.343750       7.421875       7.500000       7.578125       7.656250    
   7.734375       7.812500       7.890625       7.968750       8.046875    
   8.125000       8.203125       8.281250       8.359375       8.437500    
   8.515625       8.593750       8.671875       8.750000       8.828125    
   8.906250       8.984375       9.062500       9.140625       9.218750    
   9.296875       9.375000       9.453125       9.531250       9.609375    
   9.687500       9.765625       9.843750       9.921875       10.00000    
  0.0000000E+00  7.8125000E-02  0.1562500      0.2343750      0.3125000    
  0.3906250      0.4687500      0.5468750      0.6250000      0.7031250    
  0.7812500      0.8593750      0.9375000       1.015625       1.093750    
   1.171875       1.250000       1.328125       1.406250       1.484375    
   1.562500       1.640625       1.718750       1.796875       1.875000    
   1.953125       2.031250       2.109375       2.187500       2.265625    
   2.343750       2.421875       2.500000       2.578125       2.656250    
   2.734375       2.812500       2.890625       2.968750       3.046875    
   3.125000       3.203125       3.281250       3.359375       3.437500    
   3.515625       3.593750       3.671875       3.750000       3.828125    
   3.906250       3.984375       4.062500       4.140625       4.218750    
   4.296875       4.375000       4.453125       4.531250       4.609375    
   4.687500       4.765625       4.843750       4.921875       5.000000    
   5.078125       5.156250       5.234375       5.312500       5.390625    
   5.468750       5.546875       5.625000       5.703125       5.781250    
   5.859375       5.937500       6.015625       6.093750       6.171875    
   6.250000       6.328125       6.406250       6.484375       6.562500    
   6.640625       6.718750       6.796875       6.875000       6.953125    
   7.031250       7.109375       7.187500       7.265625       7.343750    
   7.421875       7.500000       7.578125       7.656250       7.734375    
   7.812500       7.890625       7.968750       8.046875       8.125000    
   8.203125       8.281250       8.359375       8.437500       8.515625    
   8.593750       8.671875       8.750000       8.828125       8.906250    
   8.984375       9.062500       9.140625       9.218750       9.296875    
   9.375000       9.453125       9.531250       9.609375       9.687500    
   9.765625       9.843750       9.921875       10.00000      0.0000000E+00
  7.8125000E-02  0.1562500      0.2343750      0.3125000      0.3906250    
  0.4687500      0.5468750      0.6250000      0.7031250      0.7812500    
  0.8593750      0.9375000       1.015625       1.093750       1.171875    
   1.250000       1.328125       1.406250       1.484375       1.562500    
   1.640625       1.718750       1.796875       1.875000       1.953125    
   2.031250       2.109375       2.187500       2.265625       2.343750    
   2.421875       2.500000       2.578125       2.656250       2.734375    
   2.812500       2.890625       2.968750       3.046875       3.125000    
   3.203125       3.281250       3.359375       3.437500       3.515625    
   3.593750       3.671875       3.750000       3.828125       3.906250    
   3.984375       4.062500       4.140625       4.218750       4.296875    
   4.375000       4.453125       4.531250       4.609375       4.687500    
   4.765625       4.843750       4.921875       5.000000       5.078125    
   5.156250       5.234375       5.312500       5.390625       5.468750    
   5.546875       5.625000       5.703125       5.781250       5.859375    
   5.937500       6.015625       6.093750       6.171875       6.250000    
   6.328125       6.406250       6.484375       6.562500       6.640625    
   6.718750       6.796875       6.875000       6.953125       7.031250    
   7.109375       7.187500       7.265625       7.343750       7.421875    
   7.500000       7.578125       7.656250       7.734375       7.812500    
   7.890625       7.968750       8.046875       8.125000       8.203125    
   8.281250       8.359375       8.437500       8.515625       8.593750    
   8.671875       8.750000       8.828125       8.906250       8.984375    
   9.062500       9.140625       9.218750       9.296875       9.375000    
   9.453125       9.531250       9.609375       9.687500       9.765625    
   9.843750       9.921875       10.00000      0.0000000E+00  7.8125000E-02
  0.1562500      0.2343750      0.3125000      0.3906250      0.4687500    
  0.5468750      0.6250000      0.7031250      0.7812500      0.8593750    
  0.9375000       1.015625       1.093750       1.171875       1.250000    
   1.328125       1.406250       1.484375       1.562500       1.640625    
   1.718750       1.796875       1.875000       1.953125       2.031250    
   2.109375       2.187500       2.265625       2.343750       2.421875    
   2.500000       2.578125       2.656250       2.734375       2.812500    
   2.890625       2.968750       3.046875       3.125000       3.203125    
   3.281250       3.359375       3.437500       3.515625       3.593750    
   3.671875       3.750000       3.828125       3.906250       3.984375    
   4.062500       4.140625       4.218750       4.296875       4.375000    
   4.453125       4.531250       4.609375       4.687500       4.765625    
   4.843750       4.921875       5.000000       5.078125       5.156250    
   5.234375       5.312500       5.390625       5.468750       5.546875    
   5.625000       5.703125       5.781250       5.859375       5.937500    
   6.015625       6.093750       6.171875       6.250000       6.328125    
   6.406250       6.484375       6.562500       6.640625       6.718750    
   6.796875       6.875000       6.953125       7.031250       7.109375    
   7.187500       7.265625       7.343750       7.421875       7.500000    
   7.578125       7.656250       7.734375       7.812500       7.890625    
   7.968750       8.046875       8.125000       8.203125       8.281250    
   8.359375       8.437500       8.515625       8.593750       8.671875    
   8.750000       8.828125       8.906250       8.984375       9.062500    
   9.140625       9.218750       9.296875       9.375000       9.453125    
   9.531250       9.609375       9.687500       9.765625       9.843750    
   9.921875       10.00000      0.0000000E+00  7.8125000E-02  0.1562500    
  0.2343750      0.3125000      0.3906250      0.4687500      0.5468750    
  0.6250000      0.7031250      0.7812500      0.8593750      0.9375000    
   1.015625       1.093750       1.171875       1.250000       1.328125    
   1.406250       1.484375       1.562500       1.640625       1.718750    
   1.796875       1.875000       1.953125       2.031250       2.109375    
   2.187500       2.265625       2.343750       2.421875       2.500000    
   2.578125       2.656250       2.734375       2.812500       2.890625    
   2.968750       3.046875       3.125000       3.203125       3.281250    
   3.359375       3.437500       3.515625       3.593750       3.671875    
   3.750000       3.828125       3.906250       3.984375       4.062500    
   4.140625       4.218750       4.296875       4.375000       4.453125    
   4.531250       4.609375       4.687500       4.765625       4.843750    
   4.921875       5.000000       5.078125       5.156250       5.234375    
   5.312500       5.390625       5.468750       5.546875       5.625000    
   5.703125       5.781250       5.859375       5.937500       6.015625    
   6.093750       6.171875       6.250000       6.328125       6.406250    
   6.484375       6.562500       6.640625       6.718750       6.796875    
   6.875000       6.953125       7.031250       7.109375       7.187500    
   7.265625       7.343750       7.421875       7.500000       7.578125    
   7.656250       7.734375       7.812500       7.890625       7.968750    
   8.046875       8.125000       8.203125       8.281250       8.359375    
   8.437500       8.515625       8.593750       8.671875       8.750000    
   8.828125       8.906250       8.984375       9.062500       9.140625    
   9.218750       9.296875       9.375000       9.453125       9.531250    
   9.609375       9.687500       9.765625       9.843750       9.921875    
   10.00000      0.0000000E+00  7.8125000E-02  0.1562500      0.2343750    
  0.3125000      0.3906250      0.4687500      0.5468750      0.6250000    
  0.7031250      0.7812500      0.8593750      0.9375000       1.015625    
   1.093750       1.171875       1.250000       1.328125       1.406250    
   1.484375       1.562500       1.640625       1.718750       1.796875    
   1.875000       1.953125       2.031250       2.109375       2.187500    
   2.265625       2.343750       2.421875       2.500000       2.578125    
   2.656250       2.734375       2.812500       2.890625       2.968750    
   3.046875       3.125000       3.203125       3.281250       3.359375    
   3.437500       3.515625       3.593750       3.671875       3.750000    
   3.828125       3.906250       3.984375       4.062500       4.140625    
   4.218750       4.296875       4.375000       4.453125       4.531250    
   4.609375       4.687500       4.765625       4.843750       4.921875    
   5.000000       5.078125       5.156250       5.234375       5.312500    
   5.390625       5.468750       5.546875       5.625000       5.703125    
   5.781250       5.859375       5.937500       6.015625       6.093750    
   6.171875       6.250000       6.328125       6.406250       6.484375    
   6.562500       6.640625       6.718750       6.796875       6.875000    
   6.953125       7.031250       7.109375       7.187500       7.265625    
   7.343750       7.421875       7.500000       7.578125       7.656250    
   7.734375       7.812500       7.890625       7.968750       8.046875    
   8.125000       8.203125       8.281250       8.359375       8.437500    
   8.515625       8.593750       8.671875       8.750000       8.828125    
   8.906250       8.984375       9.062500       9.140625       9.218750    
   9.296875       9.375000       9.453125       9.531250       9.609375    
   9.687500       9.765625       9.843750       9.921875       10.00000    
  0.0000000E+00  7.8125000E-02  0.1562500      0.2343750      0.3125000    
  0.3906250      0.4687500      0.5468750      0.6250000      0.7031250    
  0.7812500      0.8593750      0.9375000       1.015625       1.093750    
   1.171875       1.250000       1.328125       1.406250       1.484375    
   1.562500       1.640625       1.718750       1.796875       1.875000    
   1.953125       2.031250       2.109375       2.187500       2.265625    