 variables = x, y
 zone i =         181  j =         129  f = block
  0.0000000E+00  0.5485451       1.022247       1.382204       1.630033    
   1.789296       1.887153       1.945632       1.980000       2.000000    
   2.021739       2.043478       2.065217       2.086957       2.108696    
   2.130435       2.152174       2.173913       2.195652       2.217391    
   2.239130       2.260870       2.282609       2.304348       2.326087    
   2.347826       2.369565       2.391304       2.413043       2.434783    
   2.456522       2.478261       2.500000       2.521739       2.543478    
   2.565217       2.586957       2.608696       2.630435       2.652174    
   2.673913       2.695652       2.717391       2.739130       2.760870    
   2.782609       2.804348       2.826087       2.847826       2.869565    
   2.891304       2.913043       2.934783       2.956522       2.978261    
   3.000000       3.021739       3.043478       3.065217       3.086957    
   3.108696       3.130435       3.152174       3.173913       3.195652    
   3.217391       3.239130       3.260870       3.282609       3.304348    
   3.326087       3.347826       3.369565       3.391304       3.413043    
   3.434783       3.456522       3.478261       3.500000       3.521739    
   3.543478       3.565217       3.586957       3.608696       3.630435    
   3.652174       3.673913       3.695652       3.717391       3.739130    
   3.760870       3.782609       3.804348       3.826087       3.847826    
   3.869565       3.891304       3.913043       3.934783       3.956522    
   3.978261       4.000000       4.021739       4.043478       4.065217    
   4.086957       4.108696       4.130435       4.152174       4.173913    
   4.195652       4.217391       4.239130       4.260870       4.282609    
   4.304348       4.326087       4.347826       4.369565       4.391304    
   4.413043       4.434783       4.456522       4.478261       4.500000    
   4.521740       4.544780       4.569194       4.595057       4.622447    
   4.651446       4.682139       4.714615       4.748965       4.785283    
   4.823669       4.864223       4.907049       4.952253       4.999946    
   5.050239       5.103244       5.159077       5.217854       5.279692    
   5.344707       5.413014       5.484730       5.559967       5.638834    
   5.721437       5.807878       5.898252       5.992648       6.091146    
   6.193815       6.300716       6.411899       6.527397       6.647230    
   6.771406       6.899909       7.032711       7.169762       7.310991    
   7.456308       7.605603       7.758739       7.915563       8.075892    
   8.239531       8.406254       8.575823       8.747972       8.922424    
   9.098883       9.277037       9.456564       9.637128       9.818390    
   10.00000      0.0000000E+00  0.5485451       1.022247       1.382204    
   1.630033       1.789296       1.887153       1.945632       1.980000    
   2.000000       2.021739       2.043478       2.065217       2.086957    
   2.108696       2.130435       2.152174       2.173913       2.195652    
   2.217391       2.239130       2.260870       2.282609       2.304348    
   2.326087       2.347826       2.369565       2.391304       2.413043    
   2.434783       2.456522       2.478261       2.500000       2.521739    
   2.543478       2.565217       2.586957       2.608696       2.630435    
   2.652174       2.673913       2.695652       2.717391       2.739130    
   2.760870       2.782609       2.804348       2.826087       2.847826    
   2.869565       2.891304       2.913043       2.934783       2.956522    
   2.978261       3.000000       3.021739       3.043478       3.065217    
   3.086957       3.108696       3.130435       3.152174       3.173913    
   3.195652       3.217391       3.239130       3.260870       3.282609    
   3.304348       3.326087       3.347826       3.369565       3.391304    
   3.413043       3.434783       3.456522       3.478261       3.500000    
   3.521739       3.543478       3.565217       3.586957       3.608696    
   3.630435       3.652174       3.673913       3.695652       3.717391    
   3.739130       3.760870       3.782609       3.804348       3.826087    
   3.847826       3.869565       3.891304       3.913043       3.934783    
   3.956522       3.978261       4.000000       4.021739       4.043478    
   4.065217       4.086957       4.108696       4.130435       4.152174    
   4.173913       4.195652       4.217391       4.239130       4.260870    
   4.282609       4.304348       4.326087       4.347826       4.369565    
   4.391304       4.413043       4.434783       4.456522       4.478261    
   4.500000       4.521740       4.544780       4.569194       4.595057    
   4.622447       4.651446       4.682139       4.714615       4.748965    
   4.785283       4.823669       4.864223       4.907049       4.952253    
   4.999946       5.050239       5.103244       5.159077       5.217854    
   5.279692       5.344707       5.413014       5.484730       5.559967    
   5.638834       5.721437       5.807878       5.898252       5.992648    
   6.091146       6.193815       6.300716       6.411899       6.527397    
   6.647230       6.771406       6.899909       7.032711       7.169762    
   7.310991       7.456308       7.605603       7.758739       7.915563    
   8.075892       8.239531       8.406254       8.575823       8.747972    
   8.922424       9.098883       9.277037       9.456564       9.637128    
   9.818390       10.00000      0.0000000E+00  0.5485451       1.022247    
   1.382204       1.630033       1.789296       1.887153       1.945632    
   1.980000       2.000000       2.021739       2.043478       2.065217    
   2.086957       2.108696       2.130435       2.152174       2.173913    
   2.195652       2.217391       2.239130       2.260870       2.282609    
   2.304348       2.326087       2.347826       2.369565       2.391304    
   2.413043       2.434783       2.456522       2.478261       2.500000    
   2.521739       2.543478       2.565217       2.586957       2.608696    
   2.630435       2.652174       2.673913       2.695652       2.717391    
   2.739130       2.760870       2.782609       2.804348       2.826087    
   2.847826       2.869565       2.891304       2.913043       2.934783    
   2.956522       2.978261       3.000000       3.021739       3.043478    
   3.065217       3.086957       3.108696       3.130435       3.152174    
   3.173913       3.195652       3.217391       3.239130       3.260870    
   3.282609       3.304348       3.326087       3.347826       3.369565    
   3.391304       3.413043       3.434783       3.456522       3.478261    
   3.500000       3.521739       3.543478       3.565217       3.586957    
   3.608696       3.630435       3.652174       3.673913       3.695652    
   3.717391       3.739130       3.760870       3.782609       3.804348    
   3.826087       3.847826       3.869565       3.891304       3.913043    
   3.934783       3.956522       3.978261       4.000000       4.021739    
   4.043478       4.065217       4.086957       4.108696       4.130435    
   4.152174       4.173913       4.195652       4.217391       4.239130    
   4.260870       4.282609       4.304348       4.326087       4.347826    
   4.369565       4.391304       4.413043       4.434783       4.456522    
   4.478261       4.500000       4.521740       4.544780       4.569194    
   4.595057       4.622447       4.651446       4.682139       4.714615    
   4.748965       4.785283       4.823669       4.864223       4.907049    
   4.952253       4.999946       5.050239       5.103244       5.159077    
   5.217854       5.279692       5.344707       5.413014       5.484730    
   5.559967       5.638834       5.721437       5.807878       5.898252    
   5.992648       6.091146       6.193815       6.300716       6.411899    
   6.527397       6.647230       6.771406       6.899909       7.032711    
   7.169762       7.310991       7.456308       7.605603       7.758739    
   7.915563       8.075892       8.239531       8.406254       8.575823    
   8.747972       8.922424       9.098883       9.277037       9.456564    
   9.637128       9.818390       10.00000      0.0000000E+00  0.5485451    
   1.022247       1.382204       1.630033       1.789296       1.887153    
   1.945632       1.980000       2.000000       2.021739       2.043478    
   2.065217       2.086957       2.108696       2.130435       2.152174    
   2.173913       2.195652       2.217391       2.239130       2.260870    
   2.282609       2.304348       2.326087       2.347826       2.369565    
   2.391304       2.413043       2.434783       2.456522       2.478261    
   2.500000       2.521739       2.543478       2.565217       2.586957    
   2.608696       2.630435       2.652174       2.673913       2.695652    
   2.717391       2.739130       2.760870       2.782609       2.804348    
   2.826087       2.847826       2.869565       2.891304       2.913043    
   2.934783       2.956522       2.978261       3.000000       3.021739    
   3.043478       3.065217       3.086957       3.108696       3.130435    
   3.152174       3.173913       3.195652       3.217391       3.239130    
   3.260870       3.282609       3.304348       3.326087       3.347826    
   3.369565       3.391304       3.413043       3.434783       3.456522    
   3.478261       3.500000       3.521739       3.543478       3.565217    
   3.586957       3.608696       3.630435       3.652174       3.673913    
   3.695652       3.717391       3.739130       3.760870       3.782609    
   3.804348       3.826087       3.847826       3.869565       3.891304    
   3.913043       3.934783       3.956522       3.978261       4.000000    
   4.021739       4.043478       4.065217       4.086957       4.108696    
   4.130435       4.152174       4.173913       4.195652       4.217391    
   4.239130       4.260870       4.282609       4.304348       4.326087    
   4.347826       4.369565       4.391304       4.413043       4.434783    
   4.456522       4.478261       4.500000       4.521740       4.544780    
   4.569194       4.595057       4.622447       4.651446       4.682139    
   4.714615       4.748965       4.785283       4.823669       4.864223    
   4.907049       4.952253       4.999946       5.050239       5.103244    
   5.159077       5.217854       5.279692       5.344707       5.413014    
   5.484730       5.559967       5.638834       5.721437       5.807878    
   5.898252       5.992648       6.091146       6.193815       6.300716    
   6.411899       6.527397       6.647230       6.771406       6.899909    
   7.032711       7.169762       7.310991       7.456308       7.605603    
   7.758739       7.915563       8.075892       8.239531       8.406254    
   8.575823       8.747972       8.922424       9.098883       9.277037    
   9.456564       9.637128       9.818390       10.00000      0.0000000E+00
  0.5485451       1.022247       1.382204       1.630033       1.789296    
   1.887153       1.945632       1.980000       2.000000       2.021739    
   2.043478       2.065217       2.086957       2.108696       2.130435    
   2.152174       2.173913       2.195652       2.217391       2.239130    
   2.260870       2.282609       2.304348       2.326087       2.347826    
   2.369565       2.391304       2.413043       2.434783       2.456522    
   2.478261       2.500000       2.521739       2.543478       2.565217    
   2.586957       2.608696       2.630435       2.652174       2.673913    
   2.695652       2.717391       2.739130       2.760870       2.782609    
   2.804348       2.826087       2.847826       2.869565       2.891304    
   2.913043       2.934783       2.956522       2.978261       3.000000    
   3.021739       3.043478       3.065217       3.086957       3.108696    
   3.130435       3.152174       3.173913       3.195652       3.217391    
   3.239130       3.260870       3.282609       3.304348       3.326087    
   3.347826       3.369565       3.391304       3.413043       3.434783    
   3.456522       3.478261       3.500000       3.521739       3.543478    
   3.565217       3.586957       3.608696       3.630435       3.652174    
   3.673913       3.695652       3.717391       3.739130       3.760870    
   3.782609       3.804348       3.826087       3.847826       3.869565    
   3.891304       3.913043       3.934783       3.956522       3.978261    
   4.000000       4.021739       4.043478       4.065217       4.086957    
   4.108696       4.130435       4.152174       4.173913       4.195652    
   4.217391       4.239130       4.260870       4.282609       4.304348    
   4.326087       4.347826       4.369565       4.391304       4.413043    
   4.434783       4.456522       4.478261       4.500000       4.521740    
   4.544780       4.569194       4.595057       4.622447       4.651446    
   4.682139       4.714615       4.748965       4.785283       4.823669    
   4.864223       4.907049       4.952253       4.999946       5.050239    
   5.103244       5.159077       5.217854       5.279692       5.344707    
   5.413014       5.484730       5.559967       5.638834       5.721437    
   5.807878       5.898252       5.992648       6.091146       6.193815    
   6.300716       6.411899       6.527397       6.647230       6.771406    
   6.899909       7.032711       7.169762       7.310991       7.456308    
   7.605603       7.758739       7.915563       8.075892       8.239531    
   8.406254       8.575823       8.747972       8.922424       9.098883    
   9.277037       9.456564       9.637128       9.818390       10.00000    
  0.0000000E+00  0.5485451       1.022247       1.382204       1.630033    
   1.789296       1.887153       1.945632       1.980000       2.000000    
   2.021739       2.043478       2.065217       2.086957       2.108696    
   2.130435       2.152174       2.173913       2.195652       2.217391    
   2.239130       2.260870       2.282609       2.304348       2.326087    
   2.347826       2.369565       2.391304       2.413043       2.434783    
   2.456522       2.478261       2.500000       2.521739       2.543478    
   2.565217       2.586957       2.608696       2.630435       2.652174    
   2.673913       2.695652       2.717391       2.739130       2.760870    
   2.782609       2.804348       2.826087       2.847826       2.869565    
   2.891304       2.913043       2.934783       2.956522       2.978261    
   3.000000       3.021739       3.043478       3.065217       3.086957    
   3.108696       3.130435       3.152174       3.173913       3.195652    
   3.217391       3.239130       3.260870       3.282609       3.304348    
   3.326087       3.347826       3.369565       3.391304       3.413043    
   3.434783       3.456522       3.478261       3.500000       3.521739    
   3.543478       3.565217       3.586957       3.608696       3.630435    
   3.652174       3.673913       3.695652       3.717391       3.739130    
   3.760870       3.782609       3.804348       3.826087       3.847826    
   3.869565       3.891304       3.913043       3.934783       3.956522    
   3.978261       4.000000       4.021739       4.043478       4.065217    
   4.086957       4.108696       4.130435       4.152174       4.173913    
   4.195652       4.217391       4.239130       4.260870       4.282609    
   4.304348       4.326087       4.347826       4.369565       4.391304    
   4.413043       4.434783       4.456522       4.478261       4.500000    
   4.521740       4.544780       4.569194       4.595057       4.622447    
   4.651446       4.682139       4.714615       4.748965       4.785283    
   4.823669       4.864223       4.907049       4.952253       4.999946    
   5.050239       5.103244       5.159077       5.217854       5.279692    
   5.344707       5.413014       5.484730       5.559967       5.638834    
   5.721437       5.807878       5.898252       5.992648       6.091146    
   6.193815       6.300716       6.411899       6.527397       6.647230    
   6.771406       6.899909       7.032711       7.169762       7.310991    
   7.456308       7.605603       7.758739       7.915563       8.075892    
   8.239531       8.406254       8.575823       8.747972       8.922424    
   9.098883       9.277037       9.456564       9.637128       9.818390    
   10.00000      0.0000000E+00  0.5485451       1.022247       1.382204    
   1.630033       1.789296       1.887153       1.945632       1.980000    
   2.000000       2.021739       2.043478       2.065217       2.086957    
   2.108696       2.130435       2.152174       2.173913       2.195652    
   2.217391       2.239130       2.260870       2.282609       2.304348    
   2.326087       2.347826       2.369565       2.391304       2.413043    
   2.434783       2.456522       2.478261       2.500000       2.521739    
   2.543478       2.565217       2.586957       2.608696       2.630435    
   2.652174       2.673913       2.695652       2.717391       2.739130    
   2.760870       2.782609       2.804348       2.826087       2.847826    
   2.869565       2.891304       2.913043       2.934783       2.956522    
   2.978261       3.000000       3.021739       3.043478       3.065217    
   3.086957       3.108696       3.130435       3.152174       3.173913    
   3.195652       3.217391       3.239130       3.260870       3.282609    
   3.304348       3.326087       3.347826       3.369565       3.391304    
   3.413043       3.434783       3.456522       3.478261       3.500000    
   3.521739       3.543478       3.565217       3.586957       3.608696    
   3.630435       3.652174       3.673913       3.695652       3.717391    
   3.739130       3.760870       3.782609       3.804348       3.826087    
   3.847826       3.869565       3.891304       3.913043       3.934783    
   3.956522       3.978261       4.000000       4.021739       4.043478    
   4.065217       4.086957       4.108696       4.130435       4.152174    
   4.173913       4.195652       4.217391       4.239130       4.260870    
   4.282609       4.304348       4.326087       4.347826       4.369565    
   4.391304       4.413043       4.434783       4.456522       4.478261    
   4.500000       4.521740       4.544780       4.569194       4.595057    
   4.622447       4.651446       4.682139       4.714615       4.748965    
   4.785283       4.823669       4.864223       4.907049       4.952253    
   4.999946       5.050239       5.103244       5.159077       5.217854    
   5.279692       5.344707       5.413014       5.484730       5.559967    
   5.638834       5.721437       5.807878       5.898252       5.992648    
   6.091146       6.193815       6.300716       6.411899       6.527397    
   6.647230       6.771406       6.899909       7.032711       7.169762    
   7.310991       7.456308       7.605603       7.758739       7.915563    
   8.075892       8.239531       8.406254       8.575823       8.747972    
   8.922424       9.098883       9.277037       9.456564       9.637128    
   9.818390       10.00000      0.0000000E+00  0.5485451       1.022247    
   1.382204       1.630033       1.789296       1.887153       1.945632    
   1.980000       2.000000       2.021739       2.043478       2.065217    
   2.086957       2.108696       2.130435       2.152174       2.173913    
   2.195652       2.217391       2.239130       2.260870       2.282609    
   2.304348       2.326087       2.347826       2.369565       2.391304    
   2.413043       2.434783       2.456522       2.478261       2.500000    
   2.521739       2.543478       2.565217       2.586957       2.608696    
   2.630435       2.652174       2.673913       2.695652       2.717391    
   2.739130       2.760870       2.782609       2.804348       2.826087    
   2.847826       2.869565       2.891304       2.913043       2.934783    
   2.956522       2.978261       3.000000       3.021739       3.043478    
   3.065217       3.086957       3.108696       3.130435       3.152174    
   3.173913       3.195652       3.217391       3.239130       3.260870    
   3.282609       3.304348       3.326087       3.347826       3.369565    
   3.391304       3.413043       3.434783       3.456522       3.478261    
   3.500000       3.521739       3.543478       3.565217       3.586957    
   3.608696       3.630435       3.652174       3.673913       3.695652    
   3.717391       3.739130       3.760870       3.782609       3.804348    
   3.826087       3.847826       3.869565       3.891304       3.913043    
   3.934783       3.956522       3.978261       4.000000       4.021739    
   4.043478       4.065217       4.086957       4.108696       4.130435    
   4.152174       4.173913       4.195652       4.217391       4.239130    
   4.260870       4.282609       4.304348       4.326087       4.347826    
   4.369565       4.391304       4.413043       4.434783       4.456522    
   4.478261       4.500000       4.521740       4.544780       4.569194    
   4.595057       4.622447       4.651446       4.682139       4.714615    
   4.748965       4.785283       4.823669       4.864223       4.907049    
   4.952253       4.999946       5.050239       5.103244       5.159077    
   5.217854       5.279692       5.344707       5.413014       5.484730    
   5.559967       5.638834       5.721437       5.807878       5.898252    
   5.992648       6.091146       6.193815       6.300716       6.411899    
   6.527397       6.647230       6.771406       6.899909       7.032711    
   7.169762       7.310991       7.456308       7.605603       7.758739    
   7.915563       8.075892       8.239531       8.406254       8.575823    
   8.747972       8.922424       9.098883       9.277037       9.456564    
   9.637128       9.818390       10.00000      0.0000000E+00  0.5485451    
   1.022247       1.382204       1.630033       1.789296       1.887153    
   1.945632       1.980000       2.000000       2.021739       2.043478    
   2.065217       2.086957       2.108696       2.130435       2.152174    
   2.173913       2.195652       2.217391       2.239130       2.260870    
   2.282609       2.304348       2.326087       2.347826       2.369565    
   2.391304       2.413043       2.434783       2.456522       2.478261    
   2.500000       2.521739       2.543478       2.565217       2.586957    
   2.608696       2.630435       2.652174       2.673913       2.695652    
   2.717391       2.739130       2.760870       2.782609       2.804348    
   2.826087       2.847826       2.869565       2.891304       2.913043    
   2.934783       2.956522       2.978261       3.000000       3.021739    
   3.043478       3.065217       3.086957       3.108696       3.130435    
   3.152174       3.173913       3.195652       3.217391       3.239130    
   3.260870       3.282609       3.304348       3.326087       3.347826    
   3.369565       3.391304       3.413043       3.434783       3.456522    
   3.478261       3.500000       3.521739       3.543478       3.565217    
   3.586957       3.608696       3.630435       3.652174       3.673913    
   3.695652       3.717391       3.739130       3.760870       3.782609    
   3.804348       3.826087       3.847826       3.869565       3.891304    
   3.913043       3.934783       3.956522       3.978261       4.000000    
   4.021739       4.043478       4.065217       4.086957       4.108696    
   4.130435       4.152174       4.173913       4.195652       4.217391    
   4.239130       4.260870       4.282609       4.304348       4.326087    
   4.347826       4.369565       4.391304       4.413043       4.434783    
   4.456522       4.478261       4.500000       4.521740       4.544780    
   4.569194       4.595057       4.622447       4.651446       4.682139    
   4.714615       4.748965       4.785283       4.823669       4.864223    
   4.907049       4.952253       4.999946       5.050239       5.103244    
   5.159077       5.217854       5.279692       5.344707       5.413014    
   5.484730       5.559967       5.638834       5.721437       5.807878    
   5.898252       5.992648       6.091146       6.193815       6.300716    
   6.411899       6.527397       6.647230       6.771406       6.899909    
   7.032711       7.169762       7.310991       7.456308       7.605603    
   7.758739       7.915563       8.075892       8.239531       8.406254    
   8.575823       8.747972       8.922424       9.098883       9.277037    
   9.456564       9.637128       9.818390       10.00000      0.0000000E+00
  0.5485451       1.022247       1.382204       1.630033       1.789296    
   1.887153       1.945632       1.980000       2.000000       2.021739    
   2.043478       2.065217       2.086957       2.108696       2.130435    
   2.152174       2.173913       2.195652       2.217391       2.239130    
   2.260870       2.282609       2.304348       2.326087       2.347826    
   2.369565       2.391304       2.413043       2.434783       2.456522    
   2.478261       2.500000       2.521739       2.543478       2.565217    
   2.586957       2.608696       2.630435       2.652174       2.673913    
   2.695652       2.717391       2.739130       2.760870       2.782609    
   2.804348       2.826087       2.847826       2.869565       2.891304    
   2.913043       2.934783       2.956522       2.978261       3.000000    
   3.021739       3.043478       3.065217       3.086957       3.108696    
   3.130435       3.152174       3.173913       3.195652       3.217391    
   3.239130       3.260870       3.282609       3.304348       3.326087    
   3.347826       3.369565       3.391304       3.413043       3.434783    
   3.456522       3.478261       3.500000       3.521739       3.543478    
   3.565217       3.586957       3.608696       3.630435       3.652174    
   3.673913       3.695652       3.717391       3.739130       3.760870    
   3.782609       3.804348       3.826087       3.847826       3.869565    
   3.891304       3.913043       3.934783       3.956522       3.978261    
   4.000000       4.021739       4.043478       4.065217       4.086957    
   4.108696       4.130435       4.152174       4.173913       4.195652    
   4.217391       4.239130       4.260870       4.282609       4.304348    
   4.326087       4.347826       4.369565       4.391304       4.413043    
   4.434783       4.456522       4.478261       4.500000       4.521740    
   4.544780       4.569194       4.595057       4.622447       4.651446    
   4.682139       4.714615       4.748965       4.785283       4.823669    
   4.864223       4.907049       4.952253       4.999946       5.050239    
   5.103244       5.159077       5.217854       5.279692       5.344707    
   5.413014       5.484730       5.559967       5.638834       5.721437    
   5.807878       5.898252       5.992648       6.091146       6.193815    
   6.300716       6.411899       6.527397       6.647230       6.771406    
   6.899909       7.032711       7.169762       7.310991       7.456308    
   7.605603       7.758739       7.915563       8.075892       8.239531    
   8.406254       8.575823       8.747972       8.922424       9.098883    
   9.277037       9.456564       9.637128       9.818390       10.00000    
  0.0000000E+00  0.5485451       1.022247       1.382204       1.630033    
   1.789296       1.887153       1.945632       1.980000       2.000000    
   2.021739       2.043478       2.065217       2.086957       2.108696    
   2.130435       2.152174       2.173913       2.195652       2.217391    
   2.239130       2.260870       2.282609       2.304348       2.326087    
   2.347826       2.369565       2.391304       2.413043       2.434783    
   2.456522       2.478261       2.500000       2.521739       2.543478    
   2.565217       2.586957       2.608696       2.630435       2.652174    
   2.673913       2.695652       2.717391       2.739130       2.760870    
   2.782609       2.804348       2.826087       2.847826       2.869565    
   2.891304       2.913043       2.934783       2.956522       2.978261    
   3.000000       3.021739       3.043478       3.065217       3.086957    
   3.108696       3.130435       3.152174       3.173913       3.195652    
   3.217391       3.239130       3.260870       3.282609       3.304348    
   3.326087       3.347826       3.369565       3.391304       3.413043    
   3.434783       3.456522       3.478261       3.500000       3.521739    
   3.543478       3.565217       3.586957       3.608696       3.630435    
   3.652174       3.673913       3.695652       3.717391       3.739130    
   3.760870       3.782609       3.804348       3.826087       3.847826    
   3.869565       3.891304       3.913043       3.934783       3.956522    
   3.978261       4.000000       4.021739       4.043478       4.065217    
   4.086957       4.108696       4.130435       4.152174       4.173913    
   4.195652       4.217391       4.239130       4.260870       4.282609    
   4.304348       4.326087       4.347826       4.369565       4.391304    
   4.413043       4.434783       4.456522       4.478261       4.500000    
   4.521740       4.544780       4.569194       4.595057       4.622447    
   4.651446       4.682139       4.714615       4.748965       4.785283    
   4.823669       4.864223       4.907049       4.952253       4.999946    
   5.050239       5.103244       5.159077       5.217854       5.279692    
   5.344707       5.413014       5.484730       5.559967       5.638834    
   5.721437       5.807878       5.898252       5.992648       6.091146    